# vtk DataFile Version 3.0
#This file was generated by the deal.II library on 2023/3/22 at 22:44:40
ASCII
DATASET UNSTRUCTURED_GRID

POINTS 56836 double
0.5 0.5 0
1 0.5 0
0.5 1 0
1 1 0
0 0 0
0.25 0 0
0 0.25 0
0.25 0.25 0
0.25 0.25 0
0.5 0.25 0
0.25 0.5 0
0.5 0.5 0
0.75 0 0
1 0 0
0.75 0.25 0
1 0.25 0
0.5 0.25 0
0.75 0.25 0
0.5 0.5 0
0.75 0.5 0
0.75 0.25 0
1 0.25 0
0.75 0.5 0
1 0.5 0
0.25 0.5 0
0.5 0.5 0
0.25 0.75 0
0.5 0.75 0
0 0.75 0
0.25 0.75 0
0 1 0
0.25 1 0
0.25 0.75 0
0.5 0.75 0
0.25 1 0
0.5 1 0
-0.125 -0.75 0
0 -0.75 0
-0.125 -0.625 0
0 -0.625 0
-0.75 -0.125 0
-0.625 -0.125 0
-0.75 0 0
-0.625 0 0
-0.125 -0.375 0
0 -0.375 0
-0.125 -0.25 0
0 -0.25 0
-0.375 -0.125 0
-0.25 -0.125 0
-0.375 0 0
-0.25 0 0
0.625 -1 0
0.75 -1 0
0.625 -0.875 0
0.75 -0.875 0
-0.375 0 0
-0.25 0 0
-0.375 0.125 0
-0.25 0.125 0
-1 0.625 0
-0.875 0.625 0
-1 0.75 0
-0.875 0.75 0
-0.75 -1 0
-0.625 -1 0
-0.75 -0.875 0
-0.625 -0.875 0
-1 -0.75 0
-0.875 -0.75 0
-1 -0.625 0
-0.875 -0.625 0
-0.375 -1 0
-0.25 -1 0
-0.375 -0.875 0
-0.25 -0.875 0
-1 -0.375 0
-0.875 -0.375 0
-1 -0.25 0
-0.875 -0.25 0
0.25 -1 0
0.375 -1 0
0.25 -0.875 0
0.375 -0.875 0
0 -0.75 0
0.125 -0.75 0
0 -0.625 0
0.125 -0.625 0
0.875 -0.75 0
1 -0.75 0
0.875 -0.625 0
1 -0.625 0
0 -0.375 0
0.125 -0.375 0
0 -0.25 0
0.125 -0.25 0
0.25 -0.125 0
0.375 -0.125 0
0.25 0 0
0.375 0 0
0.875 -0.375 0
1 -0.375 0
0.875 -0.25 0
1 -0.25 0
0.625 -0.125 0
0.75 -0.125 0
0.625 0 0
0.75 0 0
-0.75 0 0
-0.625 0 0
-0.75 0.125 0
-0.625 0.125 0
-1 0.25 0
-0.875 0.25 0
-1 0.375 0
-0.875 0.375 0
-0.125 0.25 0
0 0.25 0
-0.125 0.375 0
0 0.375 0
-0.75 0.875 0
-0.625 0.875 0
-0.75 1 0
-0.625 1 0
-0.125 0.625 0
0 0.625 0
-0.125 0.75 0
0 0.75 0
-0.375 0.875 0
-0.25 0.875 0
-0.375 1 0
-0.25 1 0
-1 -1 0
-0.875 -1 0
-1 -0.875 0
-0.875 -0.875 0
-0.875 -1 0
-0.75 -1 0
-0.875 -0.875 0
-0.75 -0.875 0
-1 -0.875 0
-0.875 -0.875 0
-1 -0.75 0
-0.875 -0.75 0
-0.875 -0.875 0
-0.75 -0.875 0
-0.875 -0.75 0
-0.75 -0.75 0
-0.25 -1 0
-0.125 -1 0
-0.25 -0.875 0
-0.125 -0.875 0
-0.125 -1 0
0 -1 0
-0.125 -0.875 0
0 -0.875 0
-0.25 -0.875 0
-0.125 -0.875 0
-0.25 -0.75 0
-0.125 -0.75 0
-0.125 -0.875 0
0 -0.875 0
-0.125 -0.75 0
0 -0.75 0
-1 -0.25 0
-0.875 -0.25 0
-1 -0.125 0
-0.875 -0.125 0
-0.875 -0.25 0
-0.75 -0.25 0
-0.875 -0.125 0
-0.75 -0.125 0
-1 -0.125 0
-0.875 -0.125 0
-1 0 0
-0.875 0 0
-0.875 -0.125 0
-0.75 -0.125 0
-0.875 0 0
-0.75 0 0
-0.25 -0.25 0
-0.125 -0.25 0
-0.25 -0.125 0
-0.125 -0.125 0
-0.125 -0.25 0
0 -0.25 0
-0.125 -0.125 0
0 -0.125 0
-0.25 -0.125 0
-0.125 -0.125 0
-0.25 0 0
-0.125 0 0
-0.125 -0.125 0
0 -0.125 0
-0.125 0 0
0 0 0
0 -1 0
0.125 -1 0
0 -0.875 0
0.125 -0.875 0
0.125 -1 0
0.25 -1 0
0.125 -0.875 0
0.25 -0.875 0
0 -0.875 0
0.125 -0.875 0
0 -0.75 0
0.125 -0.75 0
0.125 -0.875 0
0.25 -0.875 0
0.125 -0.75 0
0.25 -0.75 0
0.75 -1 0
0.875 -1 0
0.75 -0.875 0
0.875 -0.875 0
0.875 -1 0
1 -1 0
0.875 -0.875 0
1 -0.875 0
0.75 -0.875 0
0.875 -0.875 0
0.75 -0.75 0
0.875 -0.75 0
0.875 -0.875 0
1 -0.875 0
0.875 -0.75 0
1 -0.75 0
0 -0.25 0
0.125 -0.25 0
0 -0.125 0
0.125 -0.125 0
0.125 -0.25 0
0.25 -0.25 0
0.125 -0.125 0
0.25 -0.125 0
0 -0.125 0
0.125 -0.125 0
0 0 0
0.125 0 0
0.125 -0.125 0
0.25 -0.125 0
0.125 0 0
0.25 0 0
0.75 -0.25 0
0.875 -0.25 0
0.75 -0.125 0
0.875 -0.125 0
0.875 -0.25 0
1 -0.25 0
0.875 -0.125 0
1 -0.125 0
0.75 -0.125 0
0.875 -0.125 0
0.75 0 0
0.875 0 0
0.875 -0.125 0
1 -0.125 0
0.875 0 0
1 0 0
-1 0 0
-0.875 0 0
-1 0.125 0
-0.875 0.125 0
-0.875 0 0
-0.75 0 0
-0.875 0.125 0
-0.75 0.125 0
-1 0.125 0
-0.875 0.125 0
-1 0.25 0
-0.875 0.25 0
-0.875 0.125 0
-0.75 0.125 0
-0.875 0.25 0
-0.75 0.25 0
-0.25 0 0
-0.125 0 0
-0.25 0.125 0
-0.125 0.125 0
-0.125 0 0
0 0 0
-0.125 0.125 0
0 0.125 0
-0.25 0.125 0
-0.125 0.125 0
-0.25 0.25 0
-0.125 0.25 0
-0.125 0.125 0
0 0.125 0
-0.125 0.25 0
0 0.25 0
-1 0.75 0
-0.875 0.75 0
-1 0.875 0
-0.875 0.875 0
-0.875 0.75 0
-0.75 0.75 0
-0.875 0.875 0
-0.75 0.875 0
-1 0.875 0
-0.875 0.875 0
-1 1 0
-0.875 1 0
-0.875 0.875 0
-0.75 0.875 0
-0.875 1 0
-0.75 1 0
-0.25 0.75 0
-0.125 0.75 0
-0.25 0.875 0
-0.125 0.875 0
-0.125 0.75 0
0 0.75 0
-0.125 0.875 0
0 0.875 0
-0.25 0.875 0
-0.125 0.875 0
-0.25 1 0
-0.125 1 0
-0.125 0.875 0
0 0.875 0
-0.125 1 0
0 1 0
0.25 0 0
0.375 0 0
0.25 0.125 0
0.375 0.125 0
0.375 0 0
0.5 0 0
0.375 0.125 0
0.5 0.125 0
0.25 0.125 0
0.375 0.125 0
0.25 0.25 0
0.375 0.25 0
0.375 0.125 0
0.5 0.125 0
0.375 0.25 0
0.5 0.25 0
0 0.25 0
0.125 0.25 0
0 0.375 0
0.125 0.375 0
0.125 0.25 0
0.25 0.25 0
0.125 0.375 0
0.25 0.375 0
0 0.375 0
0.125 0.375 0
0 0.5 0
0.125 0.5 0
0.125 0.375 0
0.25 0.375 0
0.125 0.5 0
0.25 0.5 0
0.5 0 0
0.625 0 0
0.5 0.125 0
0.625 0.125 0
0.625 0 0
0.75 0 0
0.625 0.125 0
0.75 0.125 0
0.5 0.125 0
0.625 0.125 0
0.5 0.25 0
0.625 0.25 0
0.625 0.125 0
0.75 0.125 0
0.625 0.25 0
0.75 0.25 0
0 0.5 0
0.125 0.5 0
0 0.625 0
0.125 0.625 0
0.125 0.5 0
0.25 0.5 0
0.125 0.625 0
0.25 0.625 0
0 0.625 0
0.125 0.625 0
0 0.75 0
0.125 0.75 0
0.125 0.625 0
0.25 0.625 0
0.125 0.75 0
0.25 0.75 0
-0.1875 -0.4375 0
-0.125 -0.4375 0
-0.1875 -0.375 0
-0.125 -0.375 0
-0.4375 -0.1875 0
-0.375 -0.1875 0
-0.4375 -0.125 0
-0.375 -0.125 0
0.125 -0.625 0
0.1875 -0.625 0
0.125 -0.5625 0
0.1875 -0.5625 0
0.8125 -0.625 0
0.875 -0.625 0
0.8125 -0.5625 0
0.875 -0.5625 0
0.375 -0.1875 0
0.4375 -0.1875 0
0.375 -0.125 0
0.4375 -0.125 0
0.8125 -0.4375 0
0.875 -0.4375 0
0.8125 -0.375 0
0.875 -0.375 0
0.5625 -0.1875 0
0.625 -0.1875 0
0.5625 -0.125 0
0.625 -0.125 0
-0.625 0.125 0
-0.5625 0.125 0
-0.625 0.1875 0
-0.5625 0.1875 0
-0.1875 0.375 0
-0.125 0.375 0
-0.1875 0.4375 0
-0.125 0.4375 0
-0.625 0.8125 0
-0.5625 0.8125 0
-0.625 0.875 0
-0.5625 0.875 0
-0.1875 0.5625 0
-0.125 0.5625 0
-0.1875 0.625 0
-0.125 0.625 0
-0.4375 0.8125 0
-0.375 0.8125 0
-0.4375 0.875 0
-0.375 0.875 0
-0.1875 -0.625 0
-0.125 -0.625 0
-0.1875 -0.5625 0
-0.125 -0.5625 0
-0.625 -0.1875 0
-0.5625 -0.1875 0
-0.625 -0.125 0
-0.5625 -0.125 0
0.5625 -0.875 0
0.625 -0.875 0
0.5625 -0.8125 0
0.625 -0.8125 0
-0.4375 0.125 0
-0.375 0.125 0
-0.4375 0.1875 0
-0.375 0.1875 0
-0.875 0.5625 0
-0.8125 0.5625 0
-0.875 0.625 0
-0.8125 0.625 0
-0.625 -0.875 0
-0.5625 -0.875 0
-0.625 -0.8125 0
-0.5625 -0.8125 0
-0.875 -0.625 0
-0.8125 -0.625 0
-0.875 -0.5625 0
-0.8125 -0.5625 0
-0.4375 -0.875 0
-0.375 -0.875 0
-0.4375 -0.8125 0
-0.375 -0.8125 0
-0.875 -0.4375 0
-0.8125 -0.4375 0
-0.875 -0.375 0
-0.8125 -0.375 0
0.375 -0.875 0
0.4375 -0.875 0
0.375 -0.8125 0
0.4375 -0.8125 0
0.125 -0.4375 0
0.1875 -0.4375 0
0.125 -0.375 0
0.1875 -0.375 0
-0.875 0.375 0
-0.8125 0.375 0
-0.875 0.4375 0
-0.8125 0.4375 0
-0.25 -0.75 0
-0.1875 -0.75 0
-0.25 -0.6875 0
-0.1875 -0.6875 0
-0.1875 -0.75 0
-0.125 -0.75 0
-0.1875 -0.6875 0
-0.125 -0.6875 0
-0.1875 -0.6875 0
-0.125 -0.6875 0
-0.1875 -0.625 0
-0.125 -0.625 0
-0.75 -0.25 0
-0.6875 -0.25 0
-0.75 -0.1875 0
-0.6875 -0.1875 0
-0.75 -0.1875 0
-0.6875 -0.1875 0
-0.75 -0.125 0
-0.6875 -0.125 0
-0.6875 -0.1875 0
-0.625 -0.1875 0
-0.6875 -0.125 0
-0.625 -0.125 0
-0.1875 -0.375 0
-0.125 -0.375 0
-0.1875 -0.3125 0
-0.125 -0.3125 0
-0.25 -0.3125 0
-0.1875 -0.3125 0
-0.25 -0.25 0
-0.1875 -0.25 0
-0.1875 -0.3125 0
-0.125 -0.3125 0
-0.1875 -0.25 0
-0.125 -0.25 0
-0.3125 -0.25 0
-0.25 -0.25 0
-0.3125 -0.1875 0
-0.25 -0.1875 0
-0.375 -0.1875 0
-0.3125 -0.1875 0
-0.375 -0.125 0
-0.3125 -0.125 0
-0.3125 -0.1875 0
-0.25 -0.1875 0
-0.3125 -0.125 0
-0.25 -0.125 0
0.625 -0.875 0
0.6875 -0.875 0
0.625 -0.8125 0
0.6875 -0.8125 0
0.6875 -0.875 0
0.75 -0.875 0
0.6875 -0.8125 0
0.75 -0.8125 0
0.6875 -0.8125 0
0.75 -0.8125 0
0.6875 -0.75 0
0.75 -0.75 0
-0.375 0.125 0
-0.3125 0.125 0
-0.375 0.1875 0
-0.3125 0.1875 0
-0.3125 0.125 0
-0.25 0.125 0
-0.3125 0.1875 0
-0.25 0.1875 0
-0.3125 0.1875 0
-0.25 0.1875 0
-0.3125 0.25 0
-0.25 0.25 0
-0.875 0.625 0
-0.8125 0.625 0
-0.875 0.6875 0
-0.8125 0.6875 0
-0.875 0.6875 0
-0.8125 0.6875 0
-0.875 0.75 0
-0.8125 0.75 0
-0.8125 0.6875 0
-0.75 0.6875 0
-0.8125 0.75 0
-0.75 0.75 0
-0.75 -0.875 0
-0.6875 -0.875 0
-0.75 -0.8125 0
-0.6875 -0.8125 0
-0.6875 -0.875 0
-0.625 -0.875 0
-0.6875 -0.8125 0
-0.625 -0.8125 0
-0.75 -0.8125 0
-0.6875 -0.8125 0
-0.75 -0.75 0
-0.6875 -0.75 0
-0.875 -0.75 0
-0.8125 -0.75 0
-0.875 -0.6875 0
-0.8125 -0.6875 0
-0.8125 -0.75 0
-0.75 -0.75 0
-0.8125 -0.6875 0
-0.75 -0.6875 0
-0.875 -0.6875 0
-0.8125 -0.6875 0
-0.875 -0.625 0
-0.8125 -0.625 0
-0.375 -0.875 0
-0.3125 -0.875 0
-0.375 -0.8125 0
-0.3125 -0.8125 0
-0.3125 -0.875 0
-0.25 -0.875 0
-0.3125 -0.8125 0
-0.25 -0.8125 0
-0.3125 -0.8125 0
-0.25 -0.8125 0
-0.3125 -0.75 0
-0.25 -0.75 0
-0.875 -0.375 0
-0.8125 -0.375 0
-0.875 -0.3125 0
-0.8125 -0.3125 0
-0.875 -0.3125 0
-0.8125 -0.3125 0
-0.875 -0.25 0
-0.8125 -0.25 0
-0.8125 -0.3125 0
-0.75 -0.3125 0
-0.8125 -0.25 0
-0.75 -0.25 0
0.25 -0.875 0
0.3125 -0.875 0
0.25 -0.8125 0
0.3125 -0.8125 0
0.3125 -0.875 0
0.375 -0.875 0
0.3125 -0.8125 0
0.375 -0.8125 0
0.25 -0.8125 0
0.3125 -0.8125 0
0.25 -0.75 0
0.3125 -0.75 0
0.125 -0.75 0
0.1875 -0.75 0
0.125 -0.6875 0
0.1875 -0.6875 0
0.1875 -0.75 0
0.25 -0.75 0
0.1875 -0.6875 0
0.25 -0.6875 0
0.125 -0.6875 0
0.1875 -0.6875 0
0.125 -0.625 0
0.1875 -0.625 0
0.75 -0.75 0
0.8125 -0.75 0
0.75 -0.6875 0
0.8125 -0.6875 0
0.8125 -0.75 0
0.875 -0.75 0
0.8125 -0.6875 0
0.875 -0.6875 0
0.8125 -0.6875 0
0.875 -0.6875 0
0.8125 -0.625 0
0.875 -0.625 0
0.125 -0.375 0
0.1875 -0.375 0
0.125 -0.3125 0
0.1875 -0.3125 0
0.125 -0.3125 0
0.1875 -0.3125 0
0.125 -0.25 0
0.1875 -0.25 0
0.1875 -0.3125 0
0.25 -0.3125 0
0.1875 -0.25 0
0.25 -0.25 0
0.25 -0.25 0
0.3125 -0.25 0
0.25 -0.1875 0
0.3125 -0.1875 0
0.25 -0.1875 0
0.3125 -0.1875 0
0.25 -0.125 0
0.3125 -0.125 0
0.3125 -0.1875 0
0.375 -0.1875 0
0.3125 -0.125 0
0.375 -0.125 0
0.8125 -0.375 0
0.875 -0.375 0
0.8125 -0.3125 0
0.875 -0.3125 0
0.75 -0.3125 0
0.8125 -0.3125 0
0.75 -0.25 0
0.8125 -0.25 0
0.8125 -0.3125 0
0.875 -0.3125 0
0.8125 -0.25 0
0.875 -0.25 0
0.6875 -0.25 0
0.75 -0.25 0
0.6875 -0.1875 0
0.75 -0.1875 0
0.625 -0.1875 0
0.6875 -0.1875 0
0.625 -0.125 0
0.6875 -0.125 0
0.6875 -0.1875 0
0.75 -0.1875 0
0.6875 -0.125 0
0.75 -0.125 0
-0.75 0.125 0
-0.6875 0.125 0
-0.75 0.1875 0
-0.6875 0.1875 0
[...]
POINT_DATA 56836
SCALARS solution double 1
LOOKUP_TABLE default
2.06942e-05 1.80485e-35 1.80485e-35 0 0.000123389 8.38397e-05 8.38397e-05 5.20983e-05 5.20983e-05 3.1796e-05 3.1796e-05 2.06942e-05 3.3144e-05 1.26642e-14 1.49569e-05 2.61028e-23 3.1796e-05 1.49569e-05 2.06942e-05 1.03471e-05 1.49569e-05 2.61028e-23 1.03471e-05 1.80485e-35 3.1796e-05 2.06942e-05 1.49569e-05 1.03471e-05 3.3144e-05 1.49569e-05 1.26642e-14 2.61028e-23 1.49569e-05 1.03471e-05 2.61028e-23 1.80485e-35 0.000164013 0.000140912 0.00014633 8.77457e-05 0.000164013 0.00014633 0.000140912 8.77457e-05 0.000137934 7.95893e-05 0.000146656 0.000123474 0.000137934 0.000146656 7.95893e-05 0.000123474 2.68756e-05 5.38088e-05 7.89834e-05 7.15807e-05 7.95893e-05 0.000123474 0.000123278 0.000131756 2.68756e-05 7.89834e-05 5.38088e-05 7.15807e-05 0.000171222 0.000118138 0.00018639 0.000168942 0.000171222 0.00018639 0.000118138 0.000168942 0.000110849 0.000156562 0.000161636 0.000171699 0.000110849 0.000161636 0.000156562 0.000171699 0.000124058 6.06795e-05 0.000139503 0.000111915 0.000140912 0.000147911 8.77457e-05 0.000129155 5.38365e-05 2.06115e-09 5.13396e-05 4.13994e-08 7.95893e-05 0.000123278 0.000123474 0.000131756 0.000115792 9.43928e-05 8.38397e-05 4.75395e-05 5.00717e-05 4.13994e-08 5.06802e-05 2.06115e-09 7.04078e-05 6.21539e-05 2.34341e-05 3.3144e-05 0.000140912 8.77457e-05 0.000147911 0.000129155 0.000124058 0.000139503 6.06795e-05 0.000111915 0.000115792 8.38397e-05 9.43928e-05 4.75395e-05 5.38365e-05 5.13396e-05 2.06115e-09 4.13994e-08 7.04078e-05 2.34341e-05 6.21539e-05 3.3144e-05 5.00717e-05 5.06802e-05 4.13994e-08 2.06115e-09 0.0001951 0.000189222 0.000189222 0.000203247 0.000189222 0.000171222 0.000203247 0.00018639 0.000189222 0.000203247 0.000171222 0.00018639 0.000203247 0.00018639 0.00018639 0.000459244 0.000156562 0.000167032 0.000171699 0.000181001 0.000167032 0.00016515 0.000181001 0.00015918 0.000171699 0.000181001 0.00044445 0.000164013 0.000181001 0.00015918 0.000164013 0.000140912 0.000156562 0.000171699 0.000167032 0.000181001 0.000171699 0.00044445 0.000181001 0.000164013 0.000167032 0.000181001 0.00016515 0.00015918 0.000181001 0.000164013 0.00015918 0.000140912 0.000427858 0.000146656 0.000146656 0.000154048 0.000146656 0.000123474 0.000154048 0.000130299 0.000146656 0.000154048 0.000123474 0.000130299 0.000154048 0.000130299 0.000130299 0.000123389 0.00016515 0.000151065 0.00015918 0.000165205 0.000151065 0.000124058 0.000165205 0.000139503 0.00015918 0.000165205 0.000140912 0.000147911 0.000165205 0.000139503 0.000147911 0.000414107 5.38088e-05 3.83877e-05 7.15807e-05 5.66521e-05 3.83877e-05 1.26642e-14 5.66521e-05 1.38879e-11 7.15807e-05 5.66521e-05 0.00035075 5.38365e-05 5.66521e-05 1.38879e-11 5.38365e-05 2.06115e-09 0.000123474 0.000131756 0.000130299 0.000136653 0.000131756 0.000399954 0.000136653 0.000115792 0.000130299 0.000136653 0.000123389 0.000103615 0.000136653 0.000115792 0.000103615 8.38397e-05 0.0003457 5.06802e-05 6.21539e-05 4.91839e-05 5.06802e-05 2.06115e-09 4.91839e-05 1.38879e-11 6.21539e-05 4.91839e-05 3.3144e-05 1.6572e-05 4.91839e-05 1.38879e-11 1.6572e-05 1.26642e-14 0.00016515 0.00015918 0.000151065 0.000165205 0.00015918 0.000140912 0.000165205 0.000147911 0.000151065 0.000165205 0.000124058 0.000139503 0.000165205 0.000147911 0.000139503 0.000414107 0.000123474 0.000130299 0.000131756 0.000136653 0.000130299 0.000123389 0.000136653 0.000103615 0.000131756 0.000136653 0.000399954 0.000115792 0.000136653 0.000103615 0.000115792 8.38397e-05 5.38088e-05 7.15807e-05 3.83877e-05 5.66521e-05 7.15807e-05 0.00035075 5.66521e-05 5.38365e-05 3.83877e-05 5.66521e-05 1.26642e-14 1.38879e-11 5.66521e-05 5.38365e-05 1.38879e-11 2.06115e-09 0.0003457 6.21539e-05 5.06802e-05 4.91839e-05 6.21539e-05 3.3144e-05 4.91839e-05 1.6572e-05 5.06802e-05 4.91839e-05 2.06115e-09 1.38879e-11 4.91839e-05 1.6572e-05 1.38879e-11 1.26642e-14 8.38397e-05 4.75395e-05 6.7969e-05 4.85846e-05 4.75395e-05 3.17707e-05 4.85846e-05 3.41706e-05 6.7969e-05 4.85846e-05 5.20983e-05 4.19471e-05 4.85846e-05 3.41706e-05 4.19471e-05 3.1796e-05 8.38397e-05 6.7969e-05 4.75395e-05 4.85846e-05 6.7969e-05 5.20983e-05 4.85846e-05 4.19471e-05 4.75395e-05 4.85846e-05 3.17707e-05 3.41706e-05 4.85846e-05 4.19471e-05 3.41706e-05 3.1796e-05 3.17707e-05 2.34341e-05 3.41706e-05 2.69078e-05 2.34341e-05 3.3144e-05 2.69078e-05 2.40504e-05 3.41706e-05 2.69078e-05 3.1796e-05 2.33764e-05 2.69078e-05 2.40504e-05 2.33764e-05 1.49569e-05 3.17707e-05 3.41706e-05 2.34341e-05 2.69078e-05 3.41706e-05 3.1796e-05 2.69078e-05 2.33764e-05 2.34341e-05 2.69078e-05 3.3144e-05 2.40504e-05 2.69078e-05 2.33764e-05 2.40504e-05 1.49569e-05 0.00144986 0.000121755 0.000809777 0.000137934 0.00144986 0.000809777 0.000121755 0.000137934 0.000129155 0.000792406 0.000110002 0.00143125 0.000727744 5.13396e-05 0.00136812 3.89443e-05 0.000764736 0.0014006 9.43928e-05 7.41414e-05 0.00136724 3.83297e-05 0.000725911 5.00717e-05 0.0013876 0.000741188 6.20688e-05 7.04078e-05 0.000129155 0.000110002 0.000792406 0.00143125 0.000764736 9.43928e-05 0.0014006 7.41414e-05 0.000727744 0.00136812 5.13396e-05 3.89443e-05 0.0013876 6.20688e-05 0.000741188 7.04078e-05 0.00136724 0.000725911 3.83297e-05 5.00717e-05 0.000818118 0.00014633 0.001454 0.000125905 0.000818118 0.001454 0.00014633 0.000125905 6.96286e-05 7.89834e-05 0.0013948 0.000748235 0.000106881 0.000123278 0.00142749 0.000787691 6.96286e-05 0.0013948 7.89834e-05 0.000748235 0.000168942 0.000148669 0.000836896 0.00147293 0.000168942 0.000836896 0.000148669 0.00147293 0.00014502 0.000161636 0.00146927 0.000829563 0.00014502 0.00146927 0.000161636 0.000829563 0.000111915 8.59296e-05 0.000780185 0.00141056 0.000106881 0.00142749 0.000123278 0.000787691 0.000111915 0.000780185 8.59296e-05 0.00141056 0.00044445 0.000304231 0.00191298 0.000313237 0.000304231 0.000164013 0.000313237 0.000155171 0.000313237 0.000155171 0.000818118 0.00014633 0.00044445 0.00191298 0.000304231 0.000313237 0.000304231 0.000313237 0.000164013 0.000155171 0.000313237 0.000818118 0.000155171 0.00014633 0.000809777 0.000137934 0.000300618 0.000142295 0.00190062 0.000300618 0.000427858 0.000287257 0.000300618 0.000142295 0.000287257 0.000146656 0.00190062 0.000427858 0.000300618 0.000287257 0.000809777 0.000300618 0.000137934 0.000142295 0.000300618 0.000287257 0.000142295 0.000146656 7.89834e-05 7.5282e-05 0.000748235 0.00023203 7.5282e-05 7.15807e-05 0.00023203 0.000211166 0.00023203 0.000211166 0.00183056 0.00035075 0.000123278 0.000127517 0.000787691 0.000278915 0.000127517 0.000131756 0.000278915 0.000265855 0.000278915 0.000265855 0.00187273 0.000399954 7.89834e-05 0.000748235 7.5282e-05 0.00023203 7.5282e-05 0.00023203 7.15807e-05 0.000211166 0.00023203 0.00183056 0.000211166 0.00035075 0.00018639 0.000177666 0.000322817 0.000331898 0.000177666 0.000168942 0.000331898 0.000836896 0.000322817 0.000331898 0.000459244 0.00192786 0.00018639 0.000322817 0.000177666 0.000331898 0.000322817 0.000459244 0.000331898 0.00192786 0.000177666 0.000331898 0.000168942 0.000836896 0.000161636 0.000166668 0.000829563 0.000320877 0.000166668 0.000171699 0.000320877 0.000308075 0.000320877 0.000308075 0.00191679 0.00044445 0.000161636 0.000829563 0.000166668 0.000320877 0.000166668 0.000320877 0.000171699 0.000308075 0.000320877 0.00191679 0.000308075 0.00044445 0.000139503 0.000125709 0.000276805 0.000280656 0.000125709 0.000111915 0.000280656 0.000780185 0.000276805 0.000280656 0.000414107 0.00187805 0.000147911 0.000281009 0.000138533 0.000282504 0.000281009 0.000414107 0.000282504 0.00190627 0.000138533 0.000282504 0.000129155 0.000792406 0.00035075 0.000202293 0.00182333 0.000217231 0.000202293 5.38365e-05 0.000217231 5.25881e-05 0.000217231 5.25881e-05 0.000727744 5.13396e-05 0.000123278 0.000787691 0.000127517 0.000278915 0.000127517 0.000278915 0.000131756 0.000265855 0.000278915 0.00187273 0.000265855 0.000399954 0.000399954 0.00188904 0.000257873 0.000257167 0.000257873 0.000257167 0.000115792 0.000105092 0.000257167 0.000764736 0.000105092 9.43928e-05 0.000725911 5.00717e-05 0.000214315 5.0376e-05 0.00181983 0.000214315 0.0003457 0.00019819 0.000214315 5.0376e-05 0.00019819 5.06802e-05 0.00182509 0.0003457 0.000224854 0.000203927 0.000741188 0.000224854 7.04078e-05 6.62808e-05 0.000224854 0.000203927 6.62808e-05 6.21539e-05 0.000147911 0.000138533 0.000281009 0.000282504 0.000138533 0.000129155 0.000282504 0.000792406 0.000281009 0.000282504 0.000414107 0.00190627 0.000139503 0.000276805 0.000125709 0.000280656 0.000276805 0.000414107 0.000280656 0.00187805 0.000125709 0.000280656 0.000111915 0.000780185 0.000399954 0.000257873 0.00188904 0.000257167 0.000257873 0.000115792 0.000257167 0.000105092 0.000257167 0.000105092 0.000764736 9.43928e-05 0.00035075 0.00182333 0.000202293 0.000217231 0.000202293 0.000217231 5.38365e-05 5.25881e-05 0.000217231 0.000727744 5.25881e-05 5.13396e-05 0.000741188 7.04078e-05 0.000224854 6.62808e-05 0.00182509 0.000224854 0.0003457 0.000203927 0.000224854 6.62808e-05 0.000203927 6.21539e-05 0.00181983 0.0003457 0.000214315 0.00019819 0.000725911 0.000214315 5.00717e-05 5.0376e-05 0.000214315 0.00019819 5.0376e-05 5.06802e-05 0.00014633 0.000117038 0.000125905 8.66944e-05 0.000117038 8.77457e-05 8.66944e-05 8.3479e-05 0.000125905 8.66944e-05 0.000248923 7.24802e-05 8.66944e-05 8.3479e-05 7.24802e-05 7.44851e-05 0.00014633 0.000125905 0.000117038 8.66944e-05 0.000125905 0.000248923 8.66944e-05 7.24802e-05 0.000117038 8.66944e-05 8.77457e-05 8.3479e-05 8.66944e-05 7.24802e-05 8.3479e-05 7.44851e-05 0.000248923 7.24802e-05 0.000121755 8.25937e-05 7.24802e-05 7.44851e-05 8.25937e-05 7.96034e-05 0.000121755 8.25937e-05 0.000137934 0.000108762 8.25937e-05 7.96034e-05 0.000108762 7.95893e-05 0.000248923 0.000121755 7.24802e-05 8.25937e-05 0.000121755 0.000137934 8.25937e-05 0.000108762 7.24802e-05 8.25937e-05 7.44851e-05 7.96034e-05 8.25937e-05 0.000108762 7.96034e-05 7.95893e-05 3.56406e-05 3.41591e-05 3.00616e-05 3.3677e-05 3.41591e-05 2.68756e-05 3.3677e-05 5.29295e-05 3.00616e-05 3.3677e-05 0.00020308 6.96286e-05 3.3677e-05 5.29295e-05 6.96286e-05 7.89834e-05 7.44851e-05 7.96034e-05 6.48152e-05 7.51467e-05 7.96034e-05 7.95893e-05 7.51467e-05 0.000101434 6.48152e-05 7.51467e-05 0.000233783 0.000106881 7.51467e-05 0.000101434 0.000106881 0.000123278 3.56406e-05 3.00616e-05 3.41591e-05 3.3677e-05 3.00616e-05 0.00020308 3.3677e-05 6.96286e-05 3.41591e-05 3.3677e-05 2.68756e-05 5.29295e-05 3.3677e-05 6.96286e-05 5.29295e-05 7.89834e-05 0.000118138 0.000113999 0.00014354 0.00011333 0.000113999 0.000105029 0.00011333 9.9301e-05 0.00014354 0.00011333 0.000168942 0.000148669 0.00011333 9.9301e-05 0.000148669 0.000271894 0.000118138 0.00014354 0.000113999 0.00011333 0.00014354 0.000168942 0.00011333 0.000148669 0.000113999 0.00011333 0.000105029 9.9301e-05 0.00011333 0.000148669 9.9301e-05 0.000271894 0.000105029 0.000110358 9.9301e-05 0.000109687 0.000110358 0.000110849 0.000109687 0.000136243 9.9301e-05 0.000109687 0.000271894 0.00014502 0.000109687 0.000136243 0.00014502 0.000161636 0.000105029 9.9301e-05 0.000110358 0.000109687 9.9301e-05 0.000271894 0.000109687 0.00014502 0.000110358 0.000109687 0.000110849 0.000136243 0.000109687 0.00014502 0.000136243 0.000161636 6.06795e-05 5.08553e-05 8.62971e-05 5.02901e-05 5.08553e-05 3.56406e-05 5.02901e-05 3.00616e-05 8.62971e-05 5.02901e-05 0.000111915 8.59296e-05 5.02901e-05 3.00616e-05 8.59296e-05 0.00020308 8.77457e-05 0.00010845 8.3479e-05 7.86473e-05 0.00010845 0.000129155 7.86473e-05 0.000110002 8.3479e-05 7.86473e-05 7.44851e-05 6.48152e-05 7.86473e-05 0.000110002 6.48152e-05 0.000233783 5.13396e-05 2.56905e-05 3.89443e-05 1.2913e-06 2.56905e-05 4.13994e-08 1.2913e-06 8.76425e-08 3.89443e-05 1.2913e-06 0.000165319 -9.64446e-06 1.2913e-06 8.76425e-08 -9.64446e-06 1.12535e-07 7.44851e-05 6.48152e-05 7.96034e-05 7.51467e-05 6.48152e-05 0.000233783 7.51467e-05 0.000106881 7.96034e-05 7.51467e-05 7.95893e-05 0.000101434 7.51467e-05 0.000106881 0.000101434 0.000123278 9.43928e-05 7.41414e-05 7.09661e-05 3.90549e-05 7.41414e-05 0.000194351 3.90549e-05 2.16266e-05 7.09661e-05 3.90549e-05 4.75395e-05 3.96551e-05 3.90549e-05 2.16266e-05 3.96551e-05 3.17707e-05 0.000165319 -9.64446e-06 3.83297e-05 9.77194e-07 -9.64446e-06 1.12535e-07 9.77194e-07 8.76425e-08 3.83297e-05 9.77194e-07 5.00717e-05 2.50566e-05 9.77194e-07 8.76425e-08 2.50566e-05 4.13994e-08 0.000194351 6.20688e-05 2.16266e-05 2.70399e-05 6.20688e-05 7.04078e-05 2.70399e-05 4.69209e-05 2.16266e-05 2.70399e-05 3.17707e-05 2.76024e-05 2.70399e-05 4.69209e-05 2.76024e-05 2.34341e-05 8.77457e-05 8.3479e-05 0.00010845 7.86473e-05 8.3479e-05 7.44851e-05 7.86473e-05 6.48152e-05 0.00010845 7.86473e-05 0.000129155 0.000110002 7.86473e-05 6.48152e-05 0.000110002 0.000233783 6.06795e-05 8.62971e-05 5.08553e-05 5.02901e-05 8.62971e-05 0.000111915 5.02901e-05 8.59296e-05 5.08553e-05 5.02901e-05 3.56406e-05 3.00616e-05 5.02901e-05 8.59296e-05 3.00616e-05 0.00020308 9.43928e-05 7.09661e-05 7.41414e-05 3.90549e-05 7.09661e-05 4.75395e-05 3.90549e-05 3.96551e-05 7.41414e-05 3.90549e-05 0.000194351 2.16266e-05 3.90549e-05 3.96551e-05 2.16266e-05 3.17707e-05 5.13396e-05 3.89443e-05 2.56905e-05 1.2913e-06 3.89443e-05 0.000165319 1.2913e-06 -9.64446e-06 2.56905e-05 1.2913e-06 4.13994e-08 8.76425e-08 1.2913e-06 -9.64446e-06 8.76425e-08 1.12535e-07 0.000194351 2.16266e-05 6.20688e-05 2.70399e-05 2.16266e-05 3.17707e-05 2.70399e-05 2.76024e-05 6.20688e-05 2.70399e-05 7.04078e-05 4.69209e-05 2.70399e-05 2.76024e-05 4.69209e-05 2.34341e-05 0.000165319 3.83297e-05 -9.64446e-06 9.77194e-07 3.83297e-05 5.00717e-05 9.77194e-07 2.50566e-05 -9.64446e-06 9.77194e-07 1.12535e-07 8.76425e-08 9.77194e-07 2.50566e-05 8.76425e-08 4.13994e-08 0.00490039 0.00144986 0.00367741 0.00112982 0.00367741 0.00112982 0.00235177 0.000809777 0.00490039 0.00367741 0.00144986 0.00112982 0.00367741 0.00235177 0.00112982 0.000809777 0.000792406 0.00232349 0.00111183 0.00365972 0.00111183 0.00365972 0.00143125 0.00487925 0.00227189 0.000727744 0.00359752 0.00104793 0.00359752 0.00104793 0.0048202 0.00136812 0.00229935 0.00363401 0.000764736 0.00108267 0.00363401 0.00485179 0.00108267 0.0014006 0.00481921 0.00136724 0.003596 0.00104658 0.003596 0.00104658 0.00226984 0.000725911 0.00483741 0.00361149 0.0013876 0.00106439 0.00361149 0.00228274 0.00106439 0.000741188 0.000792406 0.00111183 0.00232349 0.00365972 0.00111183 0.00143125 0.00365972 0.00487925 0.00229935 0.000764736 0.00363401 0.00108267 0.00363401 0.00108267 0.00485179 0.0014006 0.00227189 0.00359752 0.000727744 0.00104793 0.00359752 0.0048202 0.00104793 0.00136812 0.00483741 0.0013876 0.00361149 0.00106439 0.00361149 0.00106439 0.00228274 0.000741188 0.00481921 0.003596 0.00136724 0.00104658 0.003596 0.00226984 0.00104658 0.000725911 0.00236005 0.000818118 0.0036836 0.00113606 0.0036836 0.00113606 0.00490451 0.001454 0.00236005 0.0036836 0.000818118 0.00113606 0.0036836 0.00490451 0.00113606 0.001454 0.00190627 0.00489072 0.00382748 0.00969464 0.0013948 0.00107152 0.00484397 0.00361793 0.00107152 0.000748235 0.00361793 0.00228911 0.00487759 0.00967976 0.00188904 0.00380868 0.00190627 0.00382748 0.00489072 0.00969464 0.00142749 0.00110759 0.0048742 0.00365129 0.00110759 0.000787691 0.00365129 0.00232587 0.00487759 0.00188904 0.00967976 0.00380868 0.0013948 0.00484397 0.00107152 0.00361793 0.00107152 0.00361793 0.000748235 0.00228911 0.000836896 0.00115491 0.00237693 0.00370055 0.00115491 0.00147293 0.00370055 0.00492154 0.000836896 0.00237693 0.00115491 0.00370055 0.00115491 0.00370055 0.00147293 0.00492154 0.00146927 0.00114942 0.00491787 0.00369504 0.00114942 0.000829563 0.00369504 0.00236958 0.00146927 0.00491787 0.00114942 0.00369504 0.00114942 0.00369504 0.000829563 0.00236958 0.000780185 0.00109537 0.00232031 0.00364113 0.00109537 0.00141056 0.00364113 0.00485936 0.00142749 0.0048742 0.00110759 0.00365129 0.00110759 0.00365129 0.000787691 0.00232587 0.000780185 0.00232031 0.00109537 0.00364113 0.00109537 0.00364113 0.00141056 0.00485936 0.00203322 0.000622272 0.00196358 0.000594361 0.000622272 0.000248923 0.000594361 0.000185339 0.00196358 0.000594361 0.00144986 0.000785807 0.000594361 0.000185339 0.000785807 0.000121755 0.00203322 0.00196358 0.000622272 0.000594361 0.00196358 0.00144986 0.000594361 0.000785807 0.000622272 0.000594361 0.000248923 0.000185339 0.000594361 0.000785807 0.000185339 0.000121755 0.000110002 0.000770626 0.000171892 0.000577401 0.000770626 0.00143125 0.000577401 0.00194322 0.000171892 0.000577401 0.000233783 0.000603446 0.000577401 0.00194322 0.000603446 0.0020108 0.00136812 0.000703533 0.0018816 0.000511607 0.000703533 3.89443e-05 0.000511607 0.000102132 0.0018816 0.000511607 0.00195025 0.00053858 0.000511607 0.000102132 0.00053858 0.000165319 0.0014006 0.00191086 0.000737373 0.000542297 0.00191086 0.00197628 0.000542297 0.000566233 0.000737373 0.000542297 7.41414e-05 0.000134246 0.000542297 0.000566233 0.000134246 0.000194351 0.00195025 0.00053858 0.00188117 0.000511235 0.00053858 0.000165319 0.000511235 0.000101824 0.00188117 0.000511235 0.00136724 0.000702786 0.000511235 0.000101824 0.000702786 3.83297e-05 0.00197628 0.00190419 0.000566233 0.000536009 0.00190419 0.0013876 0.000536009 0.000724832 0.000566233 0.000536009 0.000194351 0.00012821 0.000536009 0.000724832 0.00012821 6.20688e-05 0.000110002 0.000171892 0.000770626 0.000577401 0.000171892 0.000233783 0.000577401 0.000603446 0.000770626 0.000577401 0.00143125 0.00194322 0.000577401 0.000603446 0.00194322 0.0020108 0.0014006 0.000737373 0.00191086 0.000542297 0.000737373 7.41414e-05 0.000542297 0.000134246 0.00191086 0.000542297 0.00197628 0.000566233 0.000542297 0.000134246 0.000566233 0.000194351 0.00136812 0.0018816 0.000703533 0.000511607 0.0018816 0.00195025 0.000511607 0.00053858 0.000703533 0.000511607 3.89443e-05 0.000102132 0.000511607 0.00053858 0.000102132 0.000165319 0.00197628 0.000566233 0.00190419 0.000536009 0.000566233 0.000194351 0.000536009 0.00012821 0.00190419 0.000536009 0.0013876 0.000724832 0.000536009 0.00012821 0.000724832 6.20688e-05 0.00195025 0.00188117 0.00053858 0.000511235 0.00188117 0.00136724 0.000511235 0.000702786 0.00053858 0.000511235 0.000165319 0.000101824 0.000511235 0.000702786 0.000101824 3.83297e-05 0.000459244 0.00119355 0.00119355 0.00233865 0.00119355 0.00192786 0.00233865 0.0049456 0.00119355 0.00233865 0.00192786 0.0049456 0.00233865 0.0049456 0.0049456 0.0110369 0.00191679 0.00118062 0.0049345 0.00232569 0.00118062 0.00044445 0.00232569 0.00117872 0.0049345 0.00232569 0.0110258 0.00493259 0.00232569 0.00117872 0.00493259 0.00191298 0.001454 0.000789952 0.00196564 0.000596432 0.000789952 0.000125905 0.000596432 0.000187414 0.00196564 0.000596432 0.00203322 0.000622272 0.000596432 0.000187414 0.000622272 0.000248923 0.00191679 0.0049345 0.00118062 0.00232569 0.0049345 0.0110258 0.00232569 0.00493259 0.00118062 0.00232569 0.00044445 0.00117872 0.00232569 0.00493259 0.00117872 0.00191298 0.001454 0.00196564 0.000789952 0.000596432 0.00196564 0.00203322 0.000596432 0.000622272 0.000789952 0.000596432 0.000125905 0.000187414 0.000596432 0.000622272 0.000187414 0.000248923 0.0110137 0.00492036 0.00492036 0.00231138 0.00492036 0.00190062 0.00231138 0.00116424 0.00492036 0.00231138 0.00190062 0.00116424 0.00231138 0.00116424 0.00116424 0.000427858 0.000414107 0.00114608 0.00116019 0.00229434 0.00114608 0.00187805 0.00229434 0.00489407 0.00116019 0.00229434 0.00190627 0.00489072 0.00229434 0.00489407 0.00489072 0.0109861 0.00020308 0.000136354 0.000574774 0.000543856 0.000136354 6.96286e-05 0.000543856 0.000732215 0.000574774 0.000543856 0.00198414 0.00191157 0.000543856 0.000732215 0.00191157 0.0013948 0.00183056 0.00109066 0.00484963 0.00223746 0.00109066 0.00035075 0.00223746 0.00108704 0.00484963 0.00223746 0.0109423 0.00484609 0.00223746 0.00108704 0.00484609 0.00182333 0.00187273 0.00488692 0.00113634 0.00228292 0.00488692 0.0109771 0.00228292 0.00487759 0.00113634 0.00228292 0.000399954 0.0011445 0.00228292 0.00487759 0.