# vtk DataFile Version 3.0
#This file was generated by the deal.II library on 2023/3/1 at 4:17:13
ASCII
DATASET UNSTRUCTURED_GRID

FIELD FieldData 2
CYCLE 1 1 int
89
TIME 1 1 double
0.178
POINTS 9544 double
3.38268 -0.92388 0
3.12519 -0.92388 1.2945
3 -1 0
2.77164 -1 1.14805
3 1 0
2.77164 1 1.14805
3.38268 0.92388 0
3.12519 0.92388 1.2945
1.62132 0.707107 1.62132
0.877452 0.707107 2.11836
1.85072 0.92388 1.85072
1.0016 0.92388 2.41809
1.85072 -0.92388 1.85072
1.0016 -0.92388 2.41809
1.62132 -0.707107 1.62132
0.877452 -0.707107 2.11836
3.92388 -0.382683 0
3.62519 -0.382683 1.5016
3.70711 -0.707107 0
3.42492 -0.707107 1.41865
2.62132 -0.707107 2.62132
1.41865 -0.707107 3.42492
2.39192 -0.92388 2.39192
1.2945 -0.92388 3.12519
2.39192 -0.92388 2.39192
1.2945 -0.92388 3.12519
2.12132 -1 2.12132
1.14805 -1 2.77164
2.12132 1 2.12132
1.14805 1 2.77164
2.39192 0.92388 2.39192
1.2945 0.92388 3.12519
3.70711 0.707107 0
3.42492 0.707107 1.41865
3.92388 0.382683 0
3.62519 0.382683 1.5016
1.41421 1.22465e-16 1.41421
0.765367 1.22465e-16 1.84776
1.46804 0.382683 1.46804
0.794497 0.382683 1.91809
1.46804 0.382683 1.46804
0.794497 0.382683 1.91809
1.62132 0.707107 1.62132
0.877452 0.707107 2.11836
2.82843 0 2.82843
1.53073 0 3.69552
2.7746 -0.382683 2.7746
1.5016 -0.382683 3.62519
2.62132 0.707107 2.62132
1.41865 0.707107 3.42492
2.7746 0.382683 2.7746
1.5016 0.382683 3.62519
0.765367 1.22465e-16 -1.84776
1.41421 1.22465e-16 -1.41421
0.794497 0.382683 -1.91809
1.46804 0.382683 -1.46804
0.794497 0.382683 -1.91809
1.46804 0.382683 -1.46804
0.877452 0.707107 -2.11836
1.62132 0.707107 -1.62132
1.0016 0.92388 -2.41809
1.85072 0.92388 -1.85072
1.14805 1 -2.77164
2.12132 1 -2.12132
1.14805 -1 -2.77164
2.12132 -1 -2.12132
1.0016 -0.92388 -2.41809
1.85072 -0.92388 -1.85072
0.877452 -0.707107 -2.11836
1.62132 -0.707107 -1.62132
0.794497 -0.382683 -1.91809
1.46804 -0.382683 -1.46804
0.794497 -0.382683 -1.91809
1.46804 -0.382683 -1.46804
0.765367 1.22465e-16 -1.84776
1.41421 1.22465e-16 -1.41421
1.53073 0 -3.69552
2.82843 0 -2.82843
1.5016 -0.382683 -3.62519
2.7746 -0.382683 -2.7746
1.5016 -0.382683 -3.62519
2.7746 -0.382683 -2.7746
1.41865 -0.707107 -3.42492
2.62132 -0.707107 -2.62132
3.69552 0 -1.53073
4 0 0
3.62519 -0.382683 -1.5016
3.92388 -0.382683 0
3.62519 -0.382683 -1.5016
3.92388 -0.382683 0
3.42492 -0.707107 -1.41865
3.70711 -0.707107 0
1.41865 -0.707107 -3.42492
2.62132 -0.707107 -2.62132
1.2945 -0.92388 -3.12519
2.39192 -0.92388 -2.39192
1.2945 -0.92388 -3.12519
2.39192 -0.92388 -2.39192
1.14805 -1 -2.77164
2.12132 -1 -2.12132
1.14805 1 -2.77164
2.12132 1 -2.12132
1.2945 0.92388 -3.12519
2.39192 0.92388 -2.39192
1.2945 0.92388 -3.12519
2.39192 0.92388 -2.39192
1.41865 0.707107 -3.42492
2.62132 0.707107 -2.62132
1.41865 0.707107 -3.42492
2.62132 0.707107 -2.62132
1.5016 0.382683 -3.62519
2.7746 0.382683 -2.7746
1.5016 0.382683 -3.62519
2.7746 0.382683 -2.7746
1.53073 0 -3.69552
2.82843 0 -2.82843
3.42492 0.707107 -1.41865
3.70711 0.707107 0
3.62519 0.382683 -1.5016
3.92388 0.382683 0
3.62519 0.382683 -1.5016
3.92388 0.382683 0
3.69552 0 -1.53073
4 0 0
3.42492 -0.707107 -1.41865
3.70711 -0.707107 0
3.12519 -0.92388 -1.2945
3.38268 -0.92388 0
3.12519 -0.92388 -1.2945
3.38268 -0.92388 0
2.77164 -1 -1.14805
3 -1 0
2.77164 1 -1.14805
3 1 0
3.12519 0.92388 -1.2945
3.38268 0.92388 0
3.12519 0.92388 -1.2945
3.38268 0.92388 0
3.42492 0.707107 -1.41865
3.70711 0.707107 0
1.62132 -0.707107 1.62132
0.877452 -0.707107 2.11836
1.46804 -0.382683 1.46804
0.794497 -0.382683 1.91809
0.877452 -0.707107 2.11836
1.40399e-16 -0.707107 2.29289
0.794497 -0.382683 1.91809
1.27126e-16 -0.382683 2.07612
1.46804 -0.382683 1.46804
0.794497 -0.382683 1.91809
1.41421 1.22465e-16 1.41421
0.765367 1.22465e-16 1.84776
0.794497 -0.382683 1.91809
1.27126e-16 -0.382683 2.07612
0.765367 1.22465e-16 1.84776
0 0 2
2.44443 0.83147 0
2.39746 0.83147 0.476885
2.61732 0.92388 0
2.56703 0.92388 0.510613
2.61732 0.92388 0
2.56703 0.92388 0.510613
2.80491 0.980785 0
2.75101 0.980785 0.547211
2.56703 0.92388 0.510613
2.41809 0.92388 1.0016
2.75101 0.980785 0.547211
2.5914 0.980785 1.07339
2.80491 0.980785 0
2.75101 0.980785 0.547211
3 1 0
2.94236 1 0.585271
2.75101 0.980785 0.547211
2.5914 0.980785 1.07339
2.94236 1 0.585271
2.77164 1 1.14805
2.11836 0.707107 0.877452
1.90647 0.707107 1.27386
2.25836 0.83147 0.935443
2.03247 0.83147 1.35805
1.90647 0.707107 1.27386
1.62132 0.707107 1.62132
2.03247 0.83147 1.35805
1.72847 0.83147 1.72847
2.25836 0.83147 0.935443
2.03247 0.83147 1.35805
2.41809 0.92388 1.0016
2.17622 0.92388 1.4541
2.03247 0.83147 1.35805
1.72847 0.83147 1.72847
2.17622 0.92388 1.4541
1.85072 0.92388 1.85072
3 -1 0
2.94236 -1 0.585271
2.80491 -0.980785 0
2.75101 -0.980785 0.547211
2.94236 -1 0.585271
2.77164 -1 1.14805
2.75101 -0.980785 0.547211
2.5914 -0.980785 1.07339
2.80491 -0.980785 0
2.75101 -0.980785 0.547211
2.61732 -0.92388 0
2.56703 -0.92388 0.510613
2.75101 -0.980785 0.547211
2.5914 -0.980785 1.07339
2.56703 -0.92388 0.510613
2.41809 -0.92388 1.0016
0.877452 0.707107 2.11836
0.447321 0.707107 2.24884
0.935443 0.83147 2.25836
0.476885 0.83147 2.39746
0.447321 0.707107 2.24884
1.40399e-16 0.707107 2.29289
0.476885 0.83147 2.39746
1.49678e-16 0.83147 2.44443
0.935443 0.83147 2.25836
0.476885 0.83147 2.39746
1.0016 0.92388 2.41809
0.510613 0.92388 2.56703
0.476885 0.83147 2.39746
1.49678e-16 0.83147 2.44443
0.510613 0.92388 2.56703
1.60264e-16 0.92388 2.61732
2.61732 -0.92388 0
2.56703 -0.92388 0.510613
2.44443 -0.83147 0
2.39746 -0.83147 0.476885
-1.53073 0 3.69552
-2.22228 0 3.32588
-1.52338 -0.19509 3.67777
-2.21161 -0.19509 3.3099
-2.22228 0 3.32588
-2.82843 0 2.82843
-2.21161 -0.19509 3.3099
-2.81484 -0.19509 2.81484
-1.52338 -0.19509 3.67777
-2.21161 -0.19509 3.3099
-1.5016 -0.382683 3.62519
-2.17999 -0.382683 3.26259
-2.21161 -0.19509 3.3099
-2.81484 -0.19509 2.81484
-2.17999 -0.382683 3.26259
-2.7746 -0.382683 2.7746
3.42492 -0.707107 1.41865
3.08235 -0.707107 2.05956
3.28492 -0.83147 1.36066
2.95635 -0.83147 1.97537
3.08235 -0.707107 2.05956
2.62132 -0.707107 2.62132
2.95635 -0.83147 1.97537
2.51417 -0.83147 2.51417
2.95635 -0.83147 1.97537
2.51417 -0.83147 2.51417
2.8126 -0.92388 1.87932
2.39192 -0.92388 2.39192
2.8126 0.92388 1.87932
2.39192 0.92388 2.39192
2.95635 0.83147 1.97537
2.51417 0.83147 2.51417
3.28492 0.83147 1.36066
2.95635 0.83147 1.97537
3.42492 0.707107 1.41865
3.08235 0.707107 2.05956
2.95635 0.83147 1.97537
2.51417 0.83147 2.51417
3.08235 0.707107 2.05956
2.62132 0.707107 2.62132
1.0016 0.92388 2.41809
0.510613 0.92388 2.56703
1.07339 0.980785 2.5914
0.547211 0.980785 2.75101
1.07339 0.980785 2.5914
0.547211 0.980785 2.75101
1.14805 1 2.77164
0.585271 1 2.94236
0.547211 0.980785 2.75101
1.71751e-16 0.980785 2.80491
0.585271 1 2.94236
0 1 3
1.14805 -1 2.77164
0.585271 -1 2.94236
1.07339 -0.980785 2.5914
0.547211 -0.980785 2.75101
0.585271 -1 2.94236
0 -1 3
0.547211 -0.980785 2.75101
1.71751e-16 -0.980785 2.80491
1.07339 -0.980785 2.5914
0.547211 -0.980785 2.75101
1.0016 -0.92388 2.41809
0.510613 -0.92388 2.56703
2.7746 -0.382683 2.7746
2.17999 -0.382683 3.26259
2.70926 -0.55557 2.70926
2.12865 -0.55557 3.18575
2.17999 -0.382683 3.26259
1.5016 -0.382683 3.62519
2.12865 -0.55557 3.18575
1.46624 -0.55557 3.53982
2.70926 -0.55557 2.70926
2.12865 -0.55557 3.18575
2.62132 -0.707107 2.62132
2.05956 -0.707107 3.08235
2.12865 -0.55557 3.18575
1.46624 -0.55557 3.53982
2.05956 -0.707107 3.08235
1.41865 -0.707107 3.42492
-3.83147 -0.55557 4.6922e-16
-3.75785 -0.55557 -0.747483
-3.70711 -0.707107 4.5399e-16
-3.63588 -0.707107 -0.723221
-1.5016 0.382683 3.62519
-2.17999 0.382683 3.26259
-1.52338 0.19509 3.67777
-2.21161 0.19509 3.3099
-2.17999 0.382683 3.26259
-2.7746 0.382683 2.7746
-2.21161 0.19509 3.3099
-2.81484 0.19509 2.81484
-1.52338 0.19509 3.67777
-2.21161 0.19509 3.3099
-1.53073 0 3.69552
-2.22228 0 3.32588
-2.21161 0.19509 3.3099
-2.81484 0.19509 2.81484
-2.22228 0 3.32588
-2.82843 0 2.82843
3.70711 -0.707107 0
3.63588 -0.707107 0.723221
3.55557 -0.83147 0
3.48725 -0.83147 0.693657
3.63588 -0.707107 0.723221
3.42492 -0.707107 1.41865
3.48725 -0.83147 0.693657
3.28492 -0.83147 1.36066
3.55557 -0.83147 0
3.48725 -0.83147 0.693657
3.38268 -0.92388 0
3.31769 -0.92388 0.659929
3.48725 -0.83147 0.693657
3.28492 -0.83147 1.36066
3.31769 -0.92388 0.659929
3.12519 -0.92388 1.2945
2.41809 0.92388 1.0016
2.17622 0.92388 1.4541
2.5914 0.980785 1.07339
2.3322 0.980785 1.55832
2.17622 0.92388 1.4541
1.85072 0.92388 1.85072
2.3322 0.980785 1.55832
1.98337 0.980785 1.98337
2.5914 0.980785 1.07339
2.3322 0.980785 1.55832
2.77164 1 1.14805
2.49441 1 1.66671
2.3322 0.980785 1.55832
1.98337 0.980785 1.98337
2.49441 1 1.66671
2.12132 1 2.12132
-3.70711 0.707107 4.5399e-16
-3.63588 0.707107 -0.723221
-3.83147 0.55557 4.6922e-16
-3.75785 0.55557 -0.747483
2.77164 -1 1.14805
2.49441 -1 1.66671
2.5914 -0.980785 1.07339
2.3322 -0.980785 1.55832
2.49441 -1 1.66671
2.12132 -1 2.12132
2.3322 -0.980785 1.55832
1.98337 -0.980785 1.98337
2.5914 -0.980785 1.07339
2.3322 -0.980785 1.55832
2.41809 -0.92388 1.0016
2.17622 -0.92388 1.4541
2.3322 -0.980785 1.55832
1.98337 -0.980785 1.98337
2.17622 -0.92388 1.4541
1.85072 -0.92388 1.85072
-2 0 0
-1.96157 1.22465e-16 -0.390181
-2.01921 0.19509 2.47282e-16
-1.98042 0.19509 -0.393929
-1.96157 1.22465e-16 -0.390181
-1.84776 1.22465e-16 -0.765367
-1.98042 0.19509 -0.393929
-1.86551 0.19509 -0.77272
-2.01921 0.19509 2.47282e-16
-1.98042 0.19509 -0.393929
-2.07612 0.382683 2.54251e-16
-2.03623 0.382683 -0.405031
-1.98042 0.19509 -0.393929
-1.86551 0.19509 -0.77272
-2.03623 0.382683 -0.405031
-1.91809 0.382683 -0.794497
2.41809 -0.92388 1.0016
2.17622 -0.92388 1.4541
2.25836 -0.83147 0.935443
2.03247 -0.83147 1.35805
2.17622 -0.92388 1.4541
1.85072 -0.92388 1.85072
2.03247 -0.83147 1.35805
1.72847 -0.83147 1.72847
2.25836 -0.83147 0.935443
2.03247 -0.83147 1.35805
2.11836 -0.707107 0.877452
1.90647 -0.707107 1.27386
2.03247 -0.83147 1.35805
1.72847 -0.83147 1.72847
1.90647 -0.707107 1.27386
1.62132 -0.707107 1.62132
[...]
POINT_DATA 9544
SCALARS U double 1
LOOKUP_TABLE default
0.0004455 0.00102926 0.000764081 0.00156565 0.000764549 0.00156633 0.000445442 0.00103177 0.00306185 0.00335641 0.00265672 0.00287339 0.00265778 0.00288971 0.00305488 0.00337931 0.000218749 0.000518068 0.000308719 0.000688868 0.00198736 0.00199122 0.00205381 0.00211351 0.00205381 0.00211351 0.00224467 0.00240941 0.00224608 0.00240236 0.00206972 0.00213168 0.000308685 0.000689715 0.000218752 0.000518311 0.00329422 0.00370136 0.00326205 0.00362539 0.00326205 0.00362539 0.00306185 0.00335641 0.00211272 0.00199957 0.00204209 0.0019797 0.00200227 0.00201891 0.00206083 0.00200225 0.0013797 0.000643593 0.00137417 0.000615896 0.00137417 0.000615896 0.0013667 0.000556434 0.00141261 0.00047612 0.00146721 0.000390305 0.00135792 0.000386859 0.00137357 0.00047129 0.00138943 0.000551386 0.00137612 0.00061715 0.00137612 0.00061715 0.0013797 0.000643593 0.00134017 0.000292399 0.00134454 0.000293514 0.00134454 0.000293514 0.00136526 0.000301665 0.000158956 0.000187216 0.000164349 0.000218749 0.000164349 0.000218749 0.00017763 0.000308719 0.00136526 0.000301665 0.00134607 0.000344291 0.00134607 0.000344291 0.00135792 0.000386859 0.00146721 0.000390305 0.00135287 0.000345858 0.00135287 0.000345858 0.00136435 0.0003011 0.00136435 0.0003011 0.00134472 0.000293622 0.00134472 0.000293622 0.00134017 0.000292399 0.000177644 0.000308685 0.000164331 0.000218752 0.000164331 0.000218752 0.000158956 0.000187216 0.00017763 0.000308719 0.000219067 0.0004455 0.000219067 0.0004455 0.000272848 0.000764081 0.000271592 0.000764549 0.00021913 0.000445442 0.00021913 0.000445442 0.000177644 0.000308685 0.00305488 0.00337931 0.00325541 0.00363423 0.00337931 0.00343009 0.00363423 0.00348784 0.00325541 0.00363423 0.00329422 0.00370136 0.00363423 0.00348784 0.00370136 0.00352289 0.00157869 0.00215954 0.00128828 0.00191591 0.00128828 0.00191591 0.00101061 0.00158572 0.00191591 0.00203861 0.00158572 0.00181125 0.00101061 0.00158572 0.000764549 0.00116544 0.00158572 0.00181125 0.00116544 0.00156633 0.00234849 0.00265252 0.00220754 0.00252871 0.00265252 0.00306185 0.00252871 0.00285928 0.00220754 0.00252871 0.00203861 0.00233868 0.00252871 0.00285928 0.00233868 0.00265672 0.000764081 0.00116486 0.00101096 0.00158551 0.00116486 0.00156565 0.00158551 0.00181091 0.00101096 0.00158551 0.00128924 0.00191593 0.00158551 0.00181091 0.00191593 0.00203832 0.00335641 0.00341894 0.0031149 0.00329336 0.00341894 0.00342743 0.00329336 0.00333749 0.0031149 0.00329336 0.00287339 0.00310226 0.00329336 0.00333749 0.00310226 0.00318604 0.00128924 0.00191593 0.00157931 0.00215992 0.00199244 0.00186042 0.00189251 0.00181268 0.00186042 0.00226784 0.00181268 0.0022605 0.00189251 0.00181268 0.0016594 0.00170403 0.00181268 0.0022605 0.00170403 0.00218975 0.000688868 0.00153884 0.000836092 0.00154273 0.00153884 0.00198736 0.00154273 0.00202058 0.00154273 0.00202058 0.00158818 0.00205381 0.00159352 0.00206972 0.00155109 0.00202188 0.000837386 0.00155109 0.000689715 0.00154461 0.00155109 0.00202188 0.00154461 0.00200227 0.00287339 0.00310226 0.00262365 0.00286383 0.00262365 0.00286383 0.00240236 0.00259522 0.00286383 0.00295018 0.00259522 0.00267216 0.00240941 0.0026005 0.00263685 0.00287361 0.0026005 0.00267652 0.00287361 0.00295314 0.00263685 0.00287361 0.00288971 0.0031209 0.00204209 0.0020109 0.00198522 0.00203479 0.0020109 0.0019797 0.00203479 0.00195898 0.00198522 0.00203479 0.00198736 0.00198929 0.00203479 0.00195898 0.00198929 0.00199122 0.000231055 0.000962602 0.000464658 0.00110038 0.00165845 0.00169806 0.00189161 0.00181078 0.00169806 0.00219096 0.00181078 0.00226057 0.00189161 0.00181078 0.00199244 0.00186042 0.00181078 0.00226057 0.00186042 0.00226784 0.000308719 0.000498793 0.000377109 0.000596796 0.000498793 0.000688868 0.000596796 0.000836092 0.000377109 0.000596796 0.0004455 0.000737378 0.000596796 0.000836092 0.000737378 0.00102926 0.00203861 0.00233868 0.00181125 0.00212332 0.00233868 0.00265672 0.00212332 0.00243501 0.00181125 0.00212332 0.00156633 0.00190602 0.00212332 0.00243501 0.00190602 0.00224608 0.000464614 0.00110039 0.000231003 0.000962576 0.00156565 0.0019043 0.00181091 0.00212304 0.0019043 0.00224467 0.00212304 0.00243519 0.00181091 0.00212304 0.00203832 0.00233822 0.00212304 0.00243519 0.00233822 0.00265778 0.00303265 0.00332296 0.00303537 0.00326211 0.00332296 0.00253393 0.00326211 0.00250065 0.00303537 0.00326211 0.00303713 0.00311003 0.00326211 0.00250065 0.00311003 0.0024282 0.00203832 0.00233822 0.00220714 0.00252768 0.00233822 0.00265778 0.00252768 0.00285633 0.00220714 0.00252768 0.00234859 0.00265077 0.00252768 0.00285633 0.00265077 0.00305488 0.000445442 0.000738604 0.000377063 0.000597381 0.000738604 0.00103177 0.000597381 0.000837386 0.000377063 0.000597381 0.000308685 0.0004992 0.000597381 0.000837386 0.0004992 0.000689715 0.000462503 0.0015205 0.000479983 0.00152141 0.0015205 0.00211272 0.00152141 0.00207741 0.00152141 0.00207741 0.00152209 0.00204209 0.00288971 0.0031209 0.00313451 0.00331416 0.0031209 0.00319082 0.00331416 0.00333698 0.00313451 0.00331416 0.00337931 0.0034047 0.00331416 0.00333698 0.0034047 0.00343009 0.00152828 0.00206083 0.00152646 0.00209149 0.000479923 0.00152646 0.000462503 0.0015205 0.00152646 0.00209149 0.0015205 0.00211272 0.00199122 0.00165951 0.00205236 0.001832 0.00205236 0.001832 0.00211351 0.00206704 0.001832 0.0023207 0.00206704 0.00233512 0.00211351 0.00206704 0.00226146 0.00232123 0.00206704 0.00233512 0.00232123 0.00244979 0.00226146 0.00232123 0.00240941 0.0026005 0.00232123 0.00244979 0.0026005 0.00267652 0.00240236 0.00259522 0.00226702 0.00231408 0.00259522 0.00267216 0.00231408 0.00243443 0.00226702 0.00231408 0.00213168 0.00205702 0.00231408 0.00243443 0.00205702 0.00229385 0.00213168 0.00205702 0.00205811 0.0018381 0.00205702 0.00229385 0.0018381 0.00224205 0.00212445 0.00289497 0.00227492 0.00295485 0.00289497 0.00303537 0.00295485 0.00303713 0.00283242 0.00201706 0.00280734 0.00198155 0.00201706 0.00120758 0.00198155 0.00125096 0.00280734 0.00198155 0.00275399 0.00193462 0.00198155 0.00125096 0.00193462 0.00134607 0.0023148 0.00180076 0.00220737 0.00184737 0.00180076 0.00125741 0.00184737 0.00137397 0.00220737 0.00184737 0.00207346 0.00185214 0.00184737 0.00137397 0.00185214 0.00155306 0.0020933 0.00188322 0.00225636 0.00193435 0.00188322 0.00161148 0.00193435 0.00153119 0.00225636 0.00193435 0.00240443 0.0019809 0.00193435 0.00153119 0.0019809 0.00151272 0.000187216 0.000296996 0.000202982 0.000313374 0.000296996 0.000462503 0.000313374 0.000479983 0.000202982 0.000313374 0.000218749 0.000368408 0.000313374 0.000479983 0.000368408 0.000518068 0.00337601 0.0032582 0.0032134 0.00340485 0.0032582 0.00369549 0.00340485 0.00302271 0.0032134 0.00340485 0.00274344 0.00321978 0.00340485 0.00302271 0.00321978 0.00349573 0.00254607 0.00230493 0.00252714 0.00215758 0.00199957 0.00165277 0.00198963 0.00160269 0.00198963 0.00160269 0.0019797 0.00155607 0.0019797 0.00155607 0.00195898 0.00157034 0.000518068 0.00152209 0.000603468 0.00152732 0.00152209 0.00204209 0.00152732 0.00198522 0.000603468 0.00152732 0.000688868 0.00153884 0.00152732 0.00198522 0.00153884 0.00198736 0.00201891 0.00169934 0.00201058 0.00164679 0.00201058 0.00164679 0.00200225 0.00165715 0.00206083 0.00203154 0.00209149 0.00208856 0.00203154 0.00200225 0.00208856 0.00199356 0.00209149 0.00208856 0.00211272 0.00205615 0.00208856 0.00199356 0.00205615 0.00199957 0.00200225 0.00165715 0.00199356 0.0016752 0.00165715 0.00214172 0.0016752 0.00211105 0.00199356 0.0016752 0.00199957 0.00165277 0.0016752 0.00211105 0.00165277 0.00210324 0.00274344 0.00321978 0.00246007 0.0027256 0.00321978 0.00349573 0.0027256 0.00407771 0.00246007 0.0027256 0.00230787 0.00248412 0.0027256 0.00407771 0.00248412 0.00301418 0.000689715 0.00154461 0.000604013 0.00152729 0.00154461 0.00200227 0.00152729 0.00203155 0.000604013 0.00152729 0.000518311 0.00152828 0.00152729 0.00203155 0.00152828 0.00206083 0.00303684 0.0031106 0.00303523 0.00326202 0.0031106 0.00242752 0.00326202 0.00250037 0.00303523 0.00326202 0.00303265 0.00332296 0.00326202 0.00250037 0.00332296 0.00253393 0.00102926 0.00158818 0.00129745 0.00171033 0.00158818 0.00205381 0.00171033 0.00214924 0.00129745 0.00171033 0.00156565 0.0019043 0.00171033 0.00214924 0.0019043 0.00224467 0.00156633 0.00190602 0.00129905 0.00171453 0.00190602 0.00224608 0.00171453 0.0021579 0.00129905 0.00171453 0.00103177 0.00159352 0.00171453 0.0021579 0.00159352 0.00206972 0.00252095 0.00316233 0.00310781 0.00330402 0.00316233 0.00246372 0.00330402 0.00308356 0.00310781 0.00330402 0.00339339 0.00328148 0.00330402 0.00308356 0.00328148 0.00367883 0.00352289 0.00316608 0.00351288 0.0031843 0.00316608 0.00283242 0.0031843 0.00280734 0.00351288 0.0031843 0.00350179 0.0031687 0.0031843 0.00280734 0.0031687 0.00275399 0.00240443 0.0019809 0.00255002 0.00203336 0.0019809 0.00151272 0.00203336 0.00155696 0.00255002 0.00203336 0.00268266 0.00208178 0.00203336 0.00155696 0.00208178 0.00159491 0.00210324 0.00207302 0.00213322 0.00204062 0.00213322 0.00204062 0.0021985 0.00197534 0.00204062 0.00189251 0.00197534 0.0016594 0.0021985 0.00197534 0.00227318 0.00189253 0.00197534 0.0016594 0.00189253 0.00144282 0.00189253 0.00144282 0.00182464 0.00135899 0.00182464 0.00135899 0.00183544 0.00143483 0.0023207 0.00183544 0.00233512 0.00188962 0.00183544 0.00143483 0.00188962 0.00164515 0.00233512 0.00188962 0.00244979 0.0019945 0.00188962 0.00164515 0.0019945 0.00188899 0.00244979 0.0019945 0.00267652 0.00215222 0.0019945 0.00188899 0.00215222 0.0020933 0.00267216 0.00215182 0.00243443 0.00200468 0.00215182 0.00207346 0.00200468 0.00187827 0.00243443 0.00200468 0.00229385 0.00192521 0.00200468 0.00187827 0.00192521 0.00163039 0.00229385 0.00192521 0.00224205 0.00191016 0.00192521 0.00163039 0.00191016 0.00141563 0.00224205 0.00191016 0.00221723 0.00193928 0.00191016 0.00141563 0.00193928 0.00134353 0.00221723 0.00193928 0.00218185 0.00199509 0.00218185 0.00199509 0.00214172 0.00203988 0.00214172 0.00203988 0.00211105 0.00206857 0.00203988 0.00165845 0.00206857 0.00189161 0.00211105 0.00206857 0.00210324 0.00207302 0.00342743 0.00300484 0.00333749 0.00282215 0.00300484 0.00254486 0.00282215 0.00242519 0.00333749 0.00282215 0.00318604 0.00258696 0.00282215 0.00242519 0.00258696 0.0023148 0.00268266 0.00208178 0.00277837 0.00210859 0.00208178 0.00159491 0.00210859 0.00155558 0.00277837 0.00210859 0.00282842 0.00209771 0.00210859 0.00155558 0.00209771 0.00142769 0.00258696 0.0023148 0.00235472 0.00220737 0.00295018 0.00235472 0.00267216 0.00215182 0.00235472 0.00220737 0.00215182 0.00207346 0.00267652 0.00215222 0.00295314 0.00235702 0.00215222 0.0020933 0.00235702 0.00225636 0.00235702 0.00225636 0.00257851 0.00240443 0.00282842 0.00209771 0.00284152 0.00205888 0.00209771 0.00142769 0.00205888 0.00127919 0.00284152 0.00205888 0.00283242 0.00201706 0.00205888 0.00127919 0.00201706 0.00120758 0.000218752 0.000368532 0.000202984 0.000313527 0.000368532 0.000518311 0.000313527 0.000479923 0.000202984 0.000313527 0.000187216 0.000296996 0.000313527 0.000479923 0.000296996 0.000462503 0.0015959 0.00233603 0.00146136 0.00221138 0.00164515 0.00169654 0.00188899 0.00180396 0.00169654 0.00173463 0.00180396 0.00169198 0.00188899 0.00180396 0.0020933 0.00188322 0.00180396 0.00169198 0.00188322 0.00161148 0.00319082 0.00257851 0.00333698 0.00278538 0.00257851 0.00240443 0.00278538 0.00255002 0.00333698 0.00278538 0.00343009 0.00294194 0.00278538 0.00255002 0.00294194 0.00268266 0.00207346 0.00185214 0.00187827 0.00179333 0.00185214 0.00155306 0.00179333 0.00168148 0.00187827 0.00179333 0.00163039 0.00168792 0.00179333 0.00168148 0.00168792 0.00173714 0.00343009 0.00294194 0.00345897 0.00305142 0.00294194 0.00268266 0.00305142 0.00277837 0.00345897 0.00305142 0.00348784 0.00311179 0.00305142 0.00277837 0.00311179 0.00282842 0.00153146 0.00227492 0.00165645 0.0023723 0.00165645 0.0023723 0.0015959 0.00233603 0.00233603 0.00297294 0.00221138 0.00289905 0.00297294 0.00284091 0.00289905 0.0025286 0.00348784 0.00311179 0.00350537 0.0031451 0.00311179 0.00282842 0.0031451 0.00284152 0.00350537 0.0031451 0.00352289 0.00316608 0.0031451 0.00284152 0.00316608 0.00283242 0.0026918 0.00257268 0.00267407 0.00255682 0.00267407 0.00255682 0.00261726 0.00252303 0.00137397 0.00152026 0.00155306 0.0016854 0.00152026 0.00199375 0.0016854 0.00193825 0.00196477 0.00268409 0.001847 0.00257728 0.001847 0.00257728 0.00159515 0.00234041 0.00226784 0.0021267 0.0022605 0.00213908 0.00213908 0.000915697 0.00212328 0.000986116 0.00175387 0.00198901 0.00172385 0.0021629 0.00172385 0.0021629 0.00178648 0.00241747 0.00212328 0.000986116 0.00205682 0.00110631 0.0020722 0.00205682 0.00190836 0.00191956 0.00205682 0.00110631 0.00191956 0.00130722 0.00257268 0.00273041 0.00255682 0.00271887 0.00273041 0.00329422 0.00271887 0.00327813 0.00255682 0.00271887 0.00252303 0.00269677 0.00271887 0.00327813 0.00269677 0.00326205 0.00173463 0.00180571 0.00169198 0.0018085 0.00180571 0.0017267 0.0018085 0.00185113 0.00169198 0.0018085 0.00161148 0.00175387 0.0018085 0.00185113 0.00175387 0.00198901 0.0017267 0.00174132 0.00185113 0.00201941 0.00185113 0.00201941 0.00198901 0.00232365 0.00265672 0.00276505 0.00243501 0.00253269 0.00276505 0.00287339 0.00253269 0.00262365 0.00243501 0.00253269 0.00224608 0.00232422 0.00253269 0.00262365 0.00232422 0.00240236 0.00155306 0.0016854 0.00168148 0.00179773 0.0016854 0.00193825 0.00179773 0.00184348 0.00168148 0.00179773 0.00173714 0.00180707 0.00179773 0.00184348 0.00180707 0.00172651 0.00193825 0.00232407 0.00184348 0.00201989 0.00184348 0.00201989 0.00172651 0.00174137 0.00257728 0.00301616 0.00234041 0.00296591 0.00301616 0.00300207 0.00296591 0.00303684 0.00190919 0.00130961 0.0020446 0.00111002 0.0020446 0.00111002 0.00212409 0.000985749 0.00212409 0.000985749 0.00213906 0.000915674 0.00226057 0.00213906 0.00226784 0.0021267 0.00234041 0.00296591 0.00213584 0.00289872 0.00296591 0.00303684 0.00289872 0.00303523 0.00160171 0.00134017 0.00159446 0.00134235 0.00159446 0.00134235 0.00164105 0.00134454 0.00224467 0.00232704 0.00243519 0.00253951 0.00232704 0.00240941 0.00253951 0.00263685 0.00243519 0.00253951 0.00265778 0.00277374 0.00253951 0.00263685 0.00277374 0.00288971 0.00164105 0.00134454 0.00154741 0.0013549 0.00314085 0.00154741 0.0030842 0.0015649 0.00154741 0.0013549 0.0015649 0.00136526 0.00367047 0.00341068 0.00361143 0.0033866 0.00341068 0.00386268 0.0033866 0.0038486 0.00361143 0.0033866 0.00347508 0.00335795 0.0033866 0.0038486 0.00335795 0.0037001 0.0015649 0.00136526 0.00172033 0.00135567 0.00172033 0.00135567 0.00172754 0.00134607 0.00347308 0.00335702 0.00361301 0.00338768 0.00335702 0.0037002 0.00338768 0.00384901 0.00361301 0.00338768 0.00367047 0.00341068 0.00338768 0.00384901 0.00341068 0.00386268 0.00172754 0.00134607 0.00176996 0.001352 0.00176996 0.001352 0.0017974 0.00135792 0.00154064 0.00146721 0.0017729 0.00141004 0.0017729 0.00141004 0.00172658 0.00135287 0.00206972 0.0021007 0.00202188 0.00205895 0.0021007 0.00213168 0.00205895 0.00205811 0.00202188 0.00205895 0.00200227 0.00201059 0.00205895 0.00205811 0.00201059 0.00201891 0.00172658 0.00135287 0.00171996 0.00135861 0.00171996 0.00135861 0.00156497 0.00136435 0.00370136 0.00361213 0.00366338 0.00361655 0.00361213 0.00352289 0.00361655 0.00351288 0.00366338 0.00361655 0.00362539 0.00357597 0.00361655 0.00351288 0.00357597 0.00350179 0.00308421 0.00156497 0.00314081 0.00154759 0.00156497 0.00136435 0.00154759 0.00135453 0.00154759 0.00135453 0.00164098 0.00134472 0.00362539 0.00357597 0.0034909 0.00351526 0.00357597 0.00350179 0.00351526 0.00347258 0.0034909 0.00351526 0.00335641 0.00341894 0.00351526 0.00347258 0.00341894 0.00342743 0.00164098 0.00134472 0.00159443 0.00134245 0.00159443 0.00134245 0.00160171 0.00134017 0.00350179 0.0031687 0.00347258 0.0031104 0.0031687 0.00275399 0.0031104 0.00265921 0.00347258 0.0031104 0.00342743 0.00300484 0.0031104 0.00265921 0.00300484 0.00254486 0.00178762 0.00181957 0.00173463 0.00180571 0.00181957 0.0015394 0.00180571 0.0017267 0.000292399 0.00030328 0.000292956 0.000273508 0.00030328 0.000158956 0.000273508 0.000161652 0.000292956 0.000273508 0.000293514 0.000225529 0.000273508 0.000161652 0.000225529 0.000164349 0.000643593 0.000671023 0.000629744 0.000657627 0.000671023 0.000833371 0.000657627 0.000810821 0.000629744 0.000657627 0.000615896 0.000622302 0.000657627 0.000810821 0.000622302 0.00075564 0.000615896 0.000622302 0.000586165 0.000572437 0.000622302 0.00075564 0.000572437 0.000674272 0.000586165 0.000572437 0.000556434 0.00051192 0.000572437 0.000674272 0.00051192 0.000584626 0.000293622 0.000225498 0.00029301 0.000273488 0.000225498 0.000164331 0.000273488 0.000161644 0.00029301 0.000273488 0.000292399 0.00030328 0.000273488 0.000161644 0.00030328 0.000158956 0.00130722 0.00135327 0.0015394 0.00151302 0.0015394 0.00151302 0.0017267 0.00174132 0.00173714 0.00180707 0.00179024 0.00182001 0.00180707 0.00172651 0.00182001 0.00153929 0.00172651 0.00174137 0.00153929 0.001513 0.00153929 0.001513 0.00130961 0.00135246 0.00299795 0.00293553 0.00284091 0.00280378 0.00261726 0.00252303 0.00251259 0.00245731 0.00252303 0.00269677 0.00245731 0.00269234 0.00269677 0.00326205 0.00269234 0.00316195 0.00245731 0.00269234 0.00234849 0.00265252 0.00269234 0.00316195 0.00265252 0.00306185 0.00193925 0.0013797 0.00194041 0.00137693 0.00194041 0.00137693 0.00194316 0.00137417 0.00275399 0.00193462 0.00265921 0.00186314 0.00193462 0.00134607 0.00186314 0.00138496 0.00265921 0.00186314 0.00254486 0.00179514 0.00186314 0.00138496 0.00179514 0.00132878 0.00254486 0.00179514 0.00242519 0.00177171 0.00179514 0.00132878 0.00177171 0.00125035 0.00242519 0.00177171 0.0023148 0.00180076 0.00177171 0.00125035 0.00180076 0.00125741 0.00178648 0.00241747 0.00191277 0.0026267 0.00191277 0.0026267 0.00196477 0.00268409 0.00272187 0.00242177 0.00262925 0.00244338 0.00170403 0.00218975 0.00160173 0.0020722 0.00160173 0.0020722 0.00156316 0.00190836 0.00156316 0.00190836 0.00160118 0.00178762 0.00143483 0.00160118 0.00164515 0.00169654 0.00160118 0.00178762 0.00169654 0.00173463 0.00163039 0.00168792 0.00141563 0.00158985 0.00168792 0.00173714 0.00158985 0.00179024 0.00158985 0.00179024 0.00155659 0.00189866 0.00155659 0.00189866 0.00159856 0.00206001 0.00159856 0.00206001 0.00169806 0.00219096 0.00263329 0.00244219 0.00272674 0.00241983 0.0028357 0.00281176 0.00300207 0.00293692 0.00123404 0.00191342 0.00173145 0.00219023 0.00191342 0.00204492 0.00219023 0.0021534 0.000556434 0.00051192 0.000484711 0.000455697 0.00051192 0.000584626 0.000455697 0.000495079 0.000484711 0.000455697 0.00047612 0.000386426 0.000455697 0.000495079 0.000386426 0.000415264 0.00194316 0.00137417 0.00188622 0.00137044 0.00188622 0.00137044 0.00212461 0.0013667 0.00173145 0.00219026 0.00123405 0.00191338 0.00219026 0.00215331 0.00191338 0.00204507 0.000584626 0.00117484 0.000495079 0.00100248 0.00117484 0.00184585 0.00100248 0.00157869 0.000495079 0.00100248 0.000415264 0.000818287 0.00100248 0.00157869 0.000818287 0.00128828 0.00047612 0.000386426 0.000433212 0.000340922 0.000386426 0.000415264 0.000340922 0.000342453 0.000433212 0.000340922 0.000390305 0.000309605 0.000340922 0.000342453 0.000309605 0.000271592 0.000415264 0.000818287 0.000342453 0.00064882 0.000818287 0.00128828 0.00064882 0.00101061 0.000342453 0.00064882 0.000271592 0.00051807 0.00064882 0.00101061 0.00051807 0.000764549 0.0013667 0.00096157 0.00150713 0.000975825 0.00096157 0.000556434 0.000975825 0.000484711 0.00150713 0.000975825 0.00141261 0.000944366 0.000975825 0.000484711 0.000944366 0.00047612 0.00349573 0.00202265 0.00407771 0.00178443 0.00202265 0.00141261 0.00178443 0.00143991 0.00407771 0.00178443 0.00301418 0.00154064 0.00178443 0.00143991 0.00154064 0.00146721 0.0017974 0.00135792 0.00184695 0.00136575 0.00184695 0.00136575 0.00192629 0.00137357 0.00137357 0.00092243 0.00136651 0.000983846 0.00092243 0.00047129 0.000983846 0.000489155 0.00136651 0.000983