# vtk DataFile Version 3.0
#This file was generated by the deal.II library on 2023/2/27 at 0:39:06
ASCII
DATASET UNSTRUCTURED_GRID

FIELD FieldData 2
CYCLE 1 1 int
19
TIME 1 1 double
0.038
POINTS 2920 double
-1.41421 1.22465e-16 1.41421
-2 0 0
-1.62132 0.707107 1.62132
-2.29289 0.707107 2.80798e-16
-1.62132 0.707107 1.62132
-2.29289 0.707107 2.80798e-16
-2.12132 1 2.12132
-3 1 0
-2.12132 -1 2.12132
-3 -1 0
-1.62132 -0.707107 1.62132
-2.29289 -0.707107 2.80798e-16
-1.62132 -0.707107 1.62132
-2.29289 -0.707107 2.80798e-16
-1.41421 1.22465e-16 1.41421
-2 0 0
-2.82843 0 2.82843
-4 0 0
-2.62132 -0.707107 2.62132
-3.70711 -0.707107 4.5399e-16
-2.62132 -0.707107 2.62132
-3.70711 -0.707107 4.5399e-16
-2.12132 -1 2.12132
-3 -1 0
-2.12132 1 2.12132
-3 1 0
-2.62132 0.707107 2.62132
-3.70711 0.707107 4.5399e-16
-2.62132 0.707107 2.62132
-3.70711 0.707107 4.5399e-16
-2.82843 0 2.82843
-4 0 0
-2 0 0
-1.41421 1.22465e-16 -1.41421
-2.29289 0.707107 2.80798e-16
-1.62132 0.707107 -1.62132
-1.41421 1.22465e-16 -1.41421
0 0 -2
-1.62132 0.707107 -1.62132
-4.21198e-16 0.707107 -2.29289
-2.29289 0.707107 2.80798e-16
-1.62132 0.707107 -1.62132
-3 1 0
-2.12132 1 -2.12132
-1.62132 0.707107 -1.62132
-4.21198e-16 0.707107 -2.29289
-2.12132 1 -2.12132
0 1 -3
-3 -1 0
-2.12132 -1 -2.12132
-2.29289 -0.707107 2.80798e-16
-1.62132 -0.707107 -1.62132
-2.12132 -1 -2.12132
0 -1 -3
-1.62132 -0.707107 -1.62132
-4.21198e-16 -0.707107 -2.29289
-2.29289 -0.707107 2.80798e-16
-1.62132 -0.707107 -1.62132
-2 0 0
-1.41421 1.22465e-16 -1.41421
-1.62132 -0.707107 -1.62132
-4.21198e-16 -0.707107 -2.29289
-1.41421 1.22465e-16 -1.41421
0 0 -2
-4 0 0
-2.82843 0 -2.82843
-3.70711 -0.707107 4.5399e-16
-2.62132 -0.707107 -2.62132
-2.82843 0 -2.82843
0 0 -4
-2.62132 -0.707107 -2.62132
-6.80984e-16 -0.707107 -3.70711
-3.70711 -0.707107 4.5399e-16
-2.62132 -0.707107 -2.62132
-3 -1 0
-2.12132 -1 -2.12132
-2.62132 -0.707107 -2.62132
-6.80984e-16 -0.707107 -3.70711
-2.12132 -1 -2.12132
0 -1 -3
-3 1 0
-2.12132 1 -2.12132
-3.70711 0.707107 4.5399e-16
-2.62132 0.707107 -2.62132
-2.12132 1 -2.12132
0 1 -3
-2.62132 0.707107 -2.62132
-6.80984e-16 0.707107 -3.70711
-3.70711 0.707107 4.5399e-16
-2.62132 0.707107 -2.62132
-4 0 0
-2.82843 0 -2.82843
-2.62132 0.707107 -2.62132
-6.80984e-16 0.707107 -3.70711
-2.82843 0 -2.82843
0 0 -4
0 0 -4
2.82843 0 -2.82843
-6.80984e-16 -0.707107 -3.70711
2.62132 -0.707107 -2.62132
-6.80984e-16 0.707107 -3.70711
2.62132 0.707107 -2.62132
0 0 -4
2.82843 0 -2.82843
-1.53073 0 3.69552
-2.82843 0 2.82843
-1.5016 -0.382683 3.62519
-2.7746 -0.382683 2.7746
-1.5016 -0.382683 3.62519
-2.7746 -0.382683 2.7746
-1.41865 -0.707107 3.42492
-2.62132 -0.707107 2.62132
-1.41865 -0.707107 3.42492
-2.62132 -0.707107 2.62132
-1.2945 -0.92388 3.12519
-2.39192 -0.92388 2.39192
-1.2945 -0.92388 3.12519
-2.39192 -0.92388 2.39192
-1.14805 -1 2.77164
-2.12132 -1 2.12132
0 1 3
-1.14805 1 2.77164
2.0713e-16 0.92388 3.38268
-1.2945 0.92388 3.12519
-1.14805 1 2.77164
-2.12132 1 2.12132
-1.2945 0.92388 3.12519
-2.39192 0.92388 2.39192
-1.2945 0.92388 3.12519
-2.39192 0.92388 2.39192
-1.41865 0.707107 3.42492
-2.62132 0.707107 2.62132
-0.877452 0.707107 2.11836
-1.62132 0.707107 1.62132
-1.0016 0.92388 2.41809
-1.85072 0.92388 1.85072
-1.0016 0.92388 2.41809
-1.85072 0.92388 1.85072
-1.14805 1 2.77164
-2.12132 1 2.12132
-1.14805 -1 2.77164
-2.12132 -1 2.12132
-1.0016 -0.92388 2.41809
-1.85072 -0.92388 1.85072
-1.0016 -0.92388 2.41809
-1.85072 -0.92388 1.85072
-0.877452 -0.707107 2.11836
-1.62132 -0.707107 1.62132
3.92388 0.382683 0
3.62519 0.382683 1.5016
4 0 0
3.69552 0 1.53073
0 0 2
-0.765367 1.22465e-16 1.84776
1.27126e-16 0.382683 2.07612
-0.794497 0.382683 1.91809
-0.765367 1.22465e-16 1.84776
-1.41421 1.22465e-16 1.41421
-0.794497 0.382683 1.91809
-1.46804 0.382683 1.46804
-0.794497 0.382683 1.91809
-1.46804 0.382683 1.46804
-0.877452 0.707107 2.11836
-1.62132 0.707107 1.62132
0.765367 1.22465e-16 1.84776
0 0 2
0.794497 0.382683 1.91809
1.27126e-16 0.382683 2.07612
0.794497 0.382683 1.91809
1.27126e-16 0.382683 2.07612
0.877452 0.707107 2.11836
1.40399e-16 0.707107 2.29289
-1.41865 0.707107 3.42492
-2.62132 0.707107 2.62132
-1.5016 0.382683 3.62519
-2.7746 0.382683 2.7746
-1.5016 0.382683 3.62519
-2.7746 0.382683 2.7746
-1.53073 0 3.69552
-2.82843 0 2.82843
4 0 0
3.69552 0 1.53073
3.92388 -0.382683 0
3.62519 -0.382683 1.5016
3.69552 0 1.53073
2.82843 0 2.82843
3.62519 -0.382683 1.5016
2.7746 -0.382683 2.7746
-0.877452 -0.707107 2.11836
-1.62132 -0.707107 1.62132
-0.794497 -0.382683 1.91809
-1.46804 -0.382683 1.46804
-0.794497 -0.382683 1.91809
-1.46804 -0.382683 1.46804
-0.765367 1.22465e-16 1.84776
-1.41421 1.22465e-16 1.41421
2.82843 0 -2.82843
3.69552 0 -1.53073
2.7746 -0.382683 -2.7746
3.62519 -0.382683 -1.5016
3.69552 0 -1.53073
4 0 0
3.62519 -0.382683 -1.5016
3.92388 -0.382683 0
2.7746 -0.382683 -2.7746
3.62519 -0.382683 -1.5016
2.62132 -0.707107 -2.62132
3.42492 -0.707107 -1.41865
3.62519 -0.382683 -1.5016
3.92388 -0.382683 0
3.42492 -0.707107 -1.41865
3.70711 -0.707107 0
2.62132 0.707107 -2.62132
3.42492 0.707107 -1.41865
2.7746 0.382683 -2.7746
3.62519 0.382683 -1.5016
2.7746 0.382683 -2.7746
3.62519 0.382683 -1.5016
2.82843 0 -2.82843
3.69552 0 -1.53073
3.62519 0.382683 -1.5016
3.92388 0.382683 0
3.69552 0 -1.53073
4 0 0
0 0 -2
0.765367 1.22465e-16 -1.84776
-3.81377e-16 0.382683 -2.07612
0.794497 0.382683 -1.91809
0.765367 1.22465e-16 -1.84776
1.41421 1.22465e-16 -1.41421
0.794497 0.382683 -1.91809
1.46804 0.382683 -1.46804
-3.81377e-16 0.382683 -2.07612
0.794497 0.382683 -1.91809
-4.21198e-16 0.707107 -2.29289
0.877452 0.707107 -2.11836
0.794497 0.382683 -1.91809
1.46804 0.382683 -1.46804
0.877452 0.707107 -2.11836
1.62132 0.707107 -1.62132
-4.21198e-16 0.707107 -2.29289
0.877452 0.707107 -2.11836
-4.80793e-16 0.92388 -2.61732
1.0016 0.92388 -2.41809
0.877452 0.707107 -2.11836
1.62132 0.707107 -1.62132
1.0016 0.92388 -2.41809
1.85072 0.92388 -1.85072
-4.80793e-16 0.92388 -2.61732
1.0016 0.92388 -2.41809
0 1 -3
1.14805 1 -2.77164
1.0016 0.92388 -2.41809
1.85072 0.92388 -1.85072
1.14805 1 -2.77164
2.12132 1 -2.12132
0 -1 -3
1.14805 -1 -2.77164
-4.80793e-16 -0.92388 -2.61732
1.0016 -0.92388 -2.41809
1.14805 -1 -2.77164
2.12132 -1 -2.12132
1.0016 -0.92388 -2.41809
1.85072 -0.92388 -1.85072
-4.80793e-16 -0.92388 -2.61732
1.0016 -0.92388 -2.41809
-4.21198e-16 -0.707107 -2.29289
0.877452 -0.707107 -2.11836
1.0016 -0.92388 -2.41809
1.85072 -0.92388 -1.85072
0.877452 -0.707107 -2.11836
1.62132 -0.707107 -1.62132
-4.21198e-16 -0.707107 -2.29289
0.877452 -0.707107 -2.11836
-3.81377e-16 -0.382683 -2.07612
0.794497 -0.382683 -1.91809
0.877452 -0.707107 -2.11836
1.62132 -0.707107 -1.62132
0.794497 -0.382683 -1.91809
1.46804 -0.382683 -1.46804
-3.81377e-16 -0.382683 -2.07612
0.794497 -0.382683 -1.91809
0 0 -2
0.765367 1.22465e-16 -1.84776
0.794497 -0.382683 -1.91809
1.46804 -0.382683 -1.46804
0.765367 1.22465e-16 -1.84776
1.41421 1.22465e-16 -1.41421
-6.80984e-16 -0.707107 -3.70711
1.41865 -0.707107 -3.42492
-6.21389e-16 -0.92388 -3.38268
1.2945 -0.92388 -3.12519
1.41865 -0.707107 -3.42492
2.62132 -0.707107 -2.62132
1.2945 -0.92388 -3.12519
2.39192 -0.92388 -2.39192
-6.21389e-16 -0.92388 -3.38268
1.2945 -0.92388 -3.12519
0 -1 -3
1.14805 -1 -2.77164
1.2945 -0.92388 -3.12519
2.39192 -0.92388 -2.39192
1.14805 -1 -2.77164
2.12132 -1 -2.12132
0 1 -3
1.14805 1 -2.77164
-6.21389e-16 0.92388 -3.38268
1.2945 0.92388 -3.12519
1.14805 1 -2.77164
2.12132 1 -2.12132
1.2945 0.92388 -3.12519
2.39192 0.92388 -2.39192
-6.21389e-16 0.92388 -3.38268
1.2945 0.92388 -3.12519
-6.80984e-16 0.707107 -3.70711
1.41865 0.707107 -3.42492
1.2945 0.92388 -3.12519
2.39192 0.92388 -2.39192
1.41865 0.707107 -3.42492
2.62132 0.707107 -2.62132
1.2945 0.92388 3.12519
0.659929 0.92388 3.31769
1.36066 0.83147 3.28492
0.693657 0.83147 3.48725
1.36066 0.83147 3.28492
0.693657 0.83147 3.48725
1.41865 0.707107 3.42492
0.723221 0.707107 3.63588
-0.780361 0 3.92314
-1.53073 0 3.69552
-0.776613 -0.19509 3.9043
-1.52338 -0.19509 3.67777
2.43753e-16 -0.19509 3.98079
-0.776613 -0.19509 3.9043
2.40268e-16 -0.382683 3.92388
-0.765511 -0.382683 3.84848
-0.776613 -0.19509 3.9043
-1.52338 -0.19509 3.67777
-0.765511 -0.382683 3.84848
-1.5016 -0.382683 3.62519
2.62132 -0.707107 2.62132
2.05956 -0.707107 3.08235
2.51417 -0.83147 2.51417
1.97537 -0.83147 2.95635
2.05956 -0.707107 3.08235
1.41865 -0.707107 3.42492
1.97537 -0.83147 2.95635
1.36066 -0.83147 3.28492
2.51417 -0.83147 2.51417
1.97537 -0.83147 2.95635
2.39192 -0.92388 2.39192
1.87932 -0.92388 2.8126
1.97537 -0.83147 2.95635
1.36066 -0.83147 3.28492
1.87932 -0.92388 2.8126
1.2945 -0.92388 3.12519
1.2945 -0.92388 3.12519
0.659929 -0.92388 3.31769
1.22271 -0.980785 2.95188
0.623331 -0.980785 3.1337
0.659929 -0.92388 3.31769
2.0713e-16 -0.92388 3.38268
0.623331 -0.980785 3.1337
1.95643e-16 -0.980785 3.19509
0.623331 -0.980785 3.1337
1.95643e-16 -0.980785 3.19509
0.585271 -1 2.94236
0 -1 3
0.780361 0 3.92314
0 0 4
0.776613 -0.19509 3.9043
2.43753e-16 -0.19509 3.98079
0.776613 -0.19509 3.9043
2.43753e-16 -0.19509 3.98079
0.765511 -0.382683 3.84848
2.40268e-16 -0.382683 3.92388
2.26995e-16 -0.707107 3.70711
-0.723221 -0.707107 3.63588
2.17716e-16 -0.83147 3.55557
-0.693657 -0.83147 3.48725
-0.723221 -0.707107 3.63588
-1.41865 -0.707107 3.42492
-0.693657 -0.83147 3.48725
-1.36066 -0.83147 3.28492
2.17716e-16 -0.83147 3.55557
-0.693657 -0.83147 3.48725
2.0713e-16 -0.92388 3.38268
-0.659929 -0.92388 3.31769
-0.693657 -0.83147 3.48725
-1.36066 -0.83147 3.28492
-0.659929 -0.92388 3.31769
-1.2945 -0.92388 3.12519
2.12132 1 2.12132
1.66671 1 2.49441
2.25927 0.980785 2.25927
1.7751 0.980785 2.65662
2.25927 0.980785 2.25927
1.7751 0.980785 2.65662
2.39192 0.92388 2.39192
1.87932 0.92388 2.8126
2.82843 0 2.82843
2.22228 0 3.32588
2.81484 -0.19509 2.81484
2.21161 -0.19509 3.3099
2.22228 0 3.32588
1.53073 0 3.69552
2.21161 -0.19509 3.3099
1.52338 -0.19509 3.67777
2.81484 -0.19509 2.81484
2.21161 -0.19509 3.3099
2.7746 -0.382683 2.7746
2.17999 -0.382683 3.26259
2.21161 -0.19509 3.3099
[...]
POINT_DATA 2920
SCALARS U double 1
LOOKUP_TABLE default
-0.00190039 -0.00189336 -0.001897 -0.00189444 -0.001897 -0.00189444 -0.00188843 -0.00191254 -0.00189553 -0.00191047 -0.00191263 -0.00189118 -0.00191263 -0.00189118 -0.00190039 -0.00189336 -0.00188533 -0.00192209 -0.00188717 -0.00192718 -0.00188717 -0.00192718 -0.00189553 -0.00191047 -0.00188843 -0.00191254 -0.00188911 -0.00192671 -0.00188911 -0.00192671 -0.00188533 -0.00192209 -0.00189336 -0.00192707 -0.00189444 -0.00192466 -0.00192707 -0.0018036 -0.00192466 -0.0018071 -0.00189444 -0.00192466 -0.00191254 -0.00186083 -0.00192466 -0.0018071 -0.00186083 -0.00204587 -0.00191047 -0.00186196 -0.00189118 -0.00192465 -0.00186196 -0.00204333 -0.00192465 -0.00181003 -0.00189118 -0.00192465 -0.00189336 -0.00192707 -0.00192465 -0.00181003 -0.00192707 -0.0018036 -0.00192209 -0.00182608 -0.00192718 -0.00180374 -0.00182608 -0.00217394 -0.00180374 -0.00225895 -0.00192718 -0.00180374 -0.00191047 -0.00186196 -0.00180374 -0.00225895 -0.00186196 -0.00204333 -0.00191254 -0.00186083 -0.00192671 -0.0018037 -0.00186083 -0.00204587 -0.0018037 -0.00225971 -0.00192671 -0.0018037 -0.00192209 -0.00182608 -0.0018037 -0.00225971 -0.00182608 -0.00217394 -0.00217394 -0.000489739 -0.00225895 0.000695297 -0.00225971 0.000696017 -0.00217394 -0.000489739 -0.00194546 -0.00188533 -0.00194346 -0.00188625 -0.00194346 -0.00188625 -0.00192015 -0.00188717 -0.00192015 -0.00188717 -0.00191052 -0.00189135 -0.00191052 -0.00189135 -0.0019061 -0.00189553 -0.00151446 -0.00194203 -0.00145079 -0.00193675 -0.00194203 -0.00188843 -0.00193675 -0.00188877 -0.00193675 -0.00188877 -0.00191014 -0.00188911 -0.00193008 -0.001897 -0.00193773 -0.00189272 -0.00193773 -0.00189272 -0.00194203 -0.00188843 -0.0019061 -0.00189553 -0.00189249 -0.00190408 -0.00189249 -0.00190408 -0.00180775 -0.00191263 -0.000586171 0.00507437 -0.00036587 0.00432418 -0.00178937 -0.00186853 -0.0014745 -0.00193713 -0.00186853 -0.00190039 -0.00193713 -0.0018987 -0.00193713 -0.0018987 -0.00193008 -0.001897 0.00449866 -0.00178937 0.00490042 -0.0014745 0.00490042 -0.0014745 0.00560114 -0.0015552 -0.00191014 -0.00188911 -0.00192459 -0.00188722 -0.00192459 -0.00188722 -0.00194546 -0.00188533 -0.00036587 0.00432418 -0.000789265 0.00471307 0.00432418 0.00130662 0.00471307 0.00184878 -0.00180775 -0.00191263 -0.00177355 -0.00190651 -0.00177355 -0.00190651 -0.00186853 -0.00190039 -0.000489739 0.003892 0.000102779 0.00536451 0.003892 -0.00036587 0.00536451 -0.000789265 0.000102779 0.00536451 0.000695297 0.00568843 0.00536451 -0.000789265 0.00568843 -0.00099962 0.000696017 0.00580184 0.000103139 0.00534281 0.000103139 0.00534281 -0.000489739 0.003892 0.00534281 -0.000586171 0.003892 -0.00036587 -0.0018036 -0.00269426 -0.00180535 -0.00274689 -0.00269426 0.00591844 -0.00274689 0.00523736 -0.00180535 -0.00274689 -0.0018071 -0.00263068 -0.00274689 0.00523736 -0.00263068 0.00649647 -0.0018071 -0.00263068 -0.00192648 -0.00140443 -0.00263068 0.00649647 -0.00140443 0.00485775 -0.00192648 -0.00140443 -0.00204587 -0.000499522 -0.00140443 0.00485775 -0.000499522 0.00431923 -0.00204333 -0.000500897 -0.00192668 -0.00140355 -0.000500897 0.00431724 -0.00140355 0.00485989 -0.00192668 -0.00140355 -0.00181003 -0.00262611 -0.00140355 0.00485989 -0.00262611 0.00650668 -0.00181003 -0.00262611 -0.00180681 -0.00274435 -0.00262611 0.00650668 -0.00274435 0.00524292 -0.00180681 -0.00274435 -0.0018036 -0.00269426 -0.00274435 0.00524292 -0.00269426 0.00591844 -0.00225895 -0.000781826 -0.00215114 -0.00163548 -0.000781826 0.000695297 -0.00163548 0.00244388 -0.00215114 -0.00163548 -0.00204333 -0.000500897 -0.00163548 0.00244388 -0.000500897 0.00431724 -0.00204587 -0.000499522 -0.00215279 -0.00162972 -0.000499522 0.00431923 -0.00162972 0.00246051 -0.00215279 -0.00162972 -0.00225971 -0.000781848 -0.00162972 0.00246051 -0.000781848 0.000696017 0.00644785 0.0031905 0.00565729 0.00334299 0.00565729 0.00334299 0.00490635 0.00335731 -0.00184965 -0.00194546 -0.00188419 -0.00194446 -0.00145846 -0.00188419 -0.00146332 -0.00184925 -0.00188419 -0.00194446 -0.00184925 -0.00194346 0.00357251 0.00406447 0.00452983 0.00496734 0.00406447 0.0049086 0.00496734 0.00572651 0.00452983 0.00496734 0.00562241 0.00600597 0.00496734 0.00572651 0.00600597 0.00649099 0.00649099 0.00313029 0.0070134 0.00298613 0.00313029 -0.00140048 0.00298613 -0.00138914 0.00298613 -0.00138914 0.00288906 -0.00136276 0.00357706 -0.0014797 0.00345673 -0.00145846 0.00345673 -0.00145846 0.00340025 -0.00146332 -0.00141275 -0.00182087 -0.00136869 -0.00185002 -0.00182087 -0.00192015 -0.00185002 -0.00191534 -0.00136869 -0.00185002 -0.00140048 -0.00179346 -0.00185002 -0.00191534 -0.00179346 -0.00191052 0.00779052 0.00819979 0.0067223 0.00708337 0.0067223 0.00708337 0.00577195 0.0060024 0.00130662 0.00200914 0.0015777 0.00220603 0.00200914 0.00264112 0.00220603 0.00285346 0.0015777 0.00220603 0.00184878 0.00271708 0.00220603 0.00285346 0.00271708 0.00334093 0.00411821 0.00344098 0.0049086 0.00344578 0.00572651 0.0033591 0.00649099 0.00313029 0.00257219 -0.00151446 0.0029152 -0.00148263 0.00703953 0.0029152 0.00644785 0.0031905 0.0029152 -0.00148263 0.0031905 -0.00145079 0.00577195 0.0060024 0.00494039 0.00492152 0.0060024 0.00644785 0.00492152 0.00565729 0.00494039 0.00492152 0.00409724 0.00399626 0.00492152 0.00565729 0.00399626 0.00490635 0.00490635 0.00335731 0.00418683 0.00338463 0.00482635 0.00702022 0.00401625 0.00699327 0.00652206 0.00188579 0.00702266 0.00223631 0.00188579 -0.00148818 0.00223631 -0.00148405 0.00702266 0.00223631 0.0072774 0.00257219 0.00223631 -0.00148405 0.00257219 -0.00151446 0.0040417 0.00706241 0.00490127 0.00713 -0.00137131 -0.00179994 -0.00139203 -0.00185202 -0.00179994 -0.00191014 -0.00185202 -0.00191736 -0.00139203 -0.00185202 -0.00144706 -0.00183104 -0.00185202 -0.00191736 -0.00183104 -0.00192459 0.00409724 0.00399626 0.00311936 0.00328124 0.00399626 0.00490635 0.00328124 0.00418683 0.00311936 0.00328124 0.00222392 0.00268144 0.00328124 0.00418683 0.00268144 0.00344742 0.00344742 0.00347515 0.00283926 0.00355337 0.00283926 0.00355337 0.00264112 0.00357706 0.0103506 0.0100102 0.0110325 0.0100048 0.0110325 0.0100048 0.0111455 0.0092743 0.0100048 0.00593061 0.0092743 0.00535012 0.00682253 0.00647692 0.00621893 0.00554175 0.00647692 0.00577195 0.00554175 0.00494039 0.00621893 0.00554175 0.00553072 0.0047413 0.00554175 0.00494039 0.0047413 0.00409724 0.00184878 0.00271708 0.00276039 0.00329466 0.00271708 0.00334093 0.00329466 0.00411821 0.00276039 0.00329466 0.00357251 0.00406447 0.00329466 0.00411821 0.00406447 0.0049086 0.00562241 0.00600597 0.00670982 0.00707587 0.00670982 0.00707587 0.00782478 0.00824595 -0.000353023 0.00401443 -0.000216665 0.00336853 -0.000216665 0.00336853 -0.000586171 0.0022441 0.00336853 0.00502817 0.0022441 0.00507437 0.00560114 0.00202297 0.00608694 0.00169516 0.00202297 -0.0015552 0.00169516 -0.00147721 0.00608694 0.00169516 0.00652206 0.00188579 0.00169516 -0.00147721 0.00188579 -0.00148818 0.00553072 0.0047413 0.00502817 0.00399797 0.0047413 0.00409724 0.00399797 0.00311936 0.00502817 0.00399797 0.00507437 0.00323007 0.00399797 0.00311936 0.00323007 0.00222392 0.00222392 0.00268144 0.00160629 0.00219684 0.00268144 0.00344742 0.00219684 0.00283926 0.0109942 0.00945603 0.0108708 0.0100011 0.00945603 0.00560114 0.0100011 0.00608694 0.00903724 0.00920286 0.00779052 0.00819979 0.00782478 0.00824595 0.0091236 0.00934215 0.00647531 0.00232858 0.00593061 0.00188276 0.00593061 0.00188276 0.00535012 0.00149922 -0.00138377 -0.00182022 -0.0014974 -0.00194744 -0.00182022 -0.00189249 -0.00194744 -0.00185012 -0.0014974 -0.00194744 -0.0018111 -0.00200915 -0.00194744 -0.00185012 -0.00200915 -0.00180775 -0.00146332 -0.00184925 -0.00145974 -0.00180764 -0.00184925 -0.00194346 -0.00180764 -0.0019318 -0.00145974 -0.00180764 -0.00141275 -0.00182087 -0.00180764 -0.0019318 -0.00182087 -0.00192015 -0.00140048 -0.00179346 -0.00138914 -0.00175303 -0.00179346 -0.00191052 -0.00175303 -0.00190831 -0.00138914 -0.00175303 -0.00136276 -0.00175031 -0.00175303 -0.00190831 -0.00175031 -0.0019061 -0.00145079 -0.00169377 -0.0013631 -0.0017652 -0.00169377 -0.00193675 -0.0017652 -0.00192345 -0.0013631 -0.0017652 -0.00137131 -0.00179994 -0.0017652 -0.00192345 -0.00179994 -0.00191014 0.00538072 0.00396849 0.00611239 0.00509814 0.00396849 0.00357251 0.00509814 0.00452983 0.00611239 0.00509814 0.00673169 0.00627212 0.00509814 0.00452983 0.00627212 0.00562241 0.00673169 0.00627212 0.00702022 0.007381 0.00627212 0.00562241 0.007381 0.00670982 0.00702022 0.007381 0.00699327 0.00834018 0.007381 0.00670982 0.00834018 0.00782478 0.00706241 0.00835964 0.00713 0.00748031 0.00835964 0.00779052 0.00748031 0.0067223 0.00713 0.00748031 0.00682253 0.00647692 0.00748031 0.0067223 0.00647692 0.00577195 0.00717189 0.00288906 0.00690343 0.00270682 0.00288906 -0.00136276 0.00270682 -0.00136055 0.00690343 0.00270682 0.00647531 0.00232858 0.00270682 -0.00136055 0.00232858 -0.00138377 0.00704339 0.00449866 0.0073117 0.00469954 0.010376 0.0073117 0.0105367 0.00776123 0.0073117 0.00469954 0.00776123 0.00490042 0.0105367 0.00776123 0.0108415 0.00852784 0.00776123 0.00490042 0.00852784 0.00525078 0.0108415 0.00852784 0.0109942 0.00945603 0.00852784 0.00525078 0.00945603 0.00560114 0.00471307 0.00328093 0.00473846 0.00326897 0.00328093 0.00184878 0.00326897 0.00276039 0.00473846 0.00326897 0.00538072 0.00396849 0.00326897 0.00276039 0.00396849 0.00357251 -0.000835034 0.00254989 -0.000816952 0.00202861 0.00254989 0.00644512 0.00202861 0.00656935 -0.000816952 0.00202861 -0.000762415 0.00198194 0.00202861 0.00656935 0.00198194 0.00666762 0.00644512 0.00939508 0.00656935 0.00972091 0.00939508 0.0109942 0.00972091 0.0108708 0.00656935 0.00972091 0.00666762 0.00958805 0.00972091 0.0108708 0.00958805 0.010164 -0.000762415 0.00198194 -0.000653952 0.00281554 0.00198194 0.00666762 0.00281554 0.00686131 -0.000653952 0.00281554 -0.000493293 0.0040417 0.00281554 0.00686131 0.0040417 0.00706241 0.00666762 0.00958805 0.00686131 0.00904332 0.00958805 0.010164 0.00904332 0.00903724 0.00686131 0.00904332 0.00706241 0.00835964 0.00904332 0.00903724 0.00835964 0.00779052 -0.000476758 0.00401625 -0.000653673 0.00280316 0.00401625 0.00699327 0.00280316 0.00684256 -0.000653673 0.00280316 -0.000778583 0.00196161 0.00280316 0.00684256 0.00196161 0.00666947 0.00699327 0.00834018 0.00684256 0.00908689 0.00834018 0.00782478 0.00908689 0.0091236 0.00684256 0.00908689 0.00666947 0.00966996 0.00908689 0.0091236 0.00966996 0.0103506 -0.000778583 0.00196161 -0.000845959 0.00201424 0.00196161 0.00666947 0.00201424 0.00659329 -0.000845959 0.00201424 -0.000868497 0.00255322 0.00201424 0.00659329 0.00255322 0.0065009 0.00666947 0.00966996 0.00659329 0.00985542 0.00966996 0.0103506 0.00985542 0.0110325 0.00659329 0.00985542 0.0065009 0.00954355 0.00985542 0.0110325 0.00954355 0.0111455 0.0111455 0.0092743 0.0108614 0.00827541 0.0092743 0.00535012 0.00827541 0.00488461 0.0108614 0.00827541 0.0105826 0.0074986 0.00827541 0.00488461 0.0074986 0.00458993 0.00507437 0.00323007 0.00469927 0.00280377 0.00323007 0.00222392 0.00280377 0.00160629 0.00469927 0.00280377 0.00432418 0.0028154 0.00280377 0.00160629 0.0028154 0.00130662 0.0105826 0.0074986 0.0103843 0.0071637 0.0074986 0.00458993 0.0071637 0.00448456 0.0071637 0.00448456 0.00704339 0.00449866 -0.0015552 -0.0018232 -0.00147721 -0.00183932 -0.0018232 -0.00193008 -0.00183932 -0.00193391 -0.00147721 -0.00183932 -0.00148818 -0.0018259 -0.00183932 -0.00193391 -0.0018259 -0.00193773 -0.00148818 -0.0018259 -0.00148405 -0.00181327 -0.0018259 -0.00193773 -0.00181327 -0.00193988 -0.00148405 -0.00181327 -0.00151446 -0.00172825 -0.00181327 -0.00193988 -0.00172825 -0.00194203 -0.000789265 0.0019619 -0.000894443 0.0034535 0.0019619 0.00471307 0.0034535 0.00473846 -0.000894443 0.0034535 -0.00099962 0.00420066 0.00178213 0.00460268 0.00196957 0.0047777 0.00196957 0.0047777 0.00240111 0.00533741 0.00460268 0.00777699 0.0047777 0.00794728 0.0047777 0.00794728 0.00533741 0.00836404 0.00240111 0.00533741 0.00275447 0.00599867 0.00275447 0.00599867 0.00254989 0.00644512 0.00533741 0.00836404 0.00599867 0.00892969 0.00599867 0.00892969 0.00644512 0.00939508 0.00892969 0.0108415 0.00939508 0.0109942 0.00255322 0.0065009 0.00276538 0.00608581 0.00276538 0.00608581 0.00241799 0.00539212 0.0065009 0.00954355 0.00608581 0.00897305 0.00608581 0.00897305 0.00539212 0.00846031 0.00241799 0.00539212 0.00197912 0.00480875 0.00197912 0.00480875 0.00178213 0.00460268 0.00539212 0.00846031 0.00480875 0.00799339 0.00480875 0.00799339 0.00460268 0.00777699 -0.00136276 -0.00175031 -0.00136055 -0.00176217 -0.00175031 -0.0019061 -0.00176217 -0.0018993 -0.00136055 -0.00176217 -0.00138377 -0.00182022 -0.00176217 -0.0018993 -0.00182022 -0.00189249 -0.0014745 -0.00170582 -0.00151485 -0.00181003 -0.00170582 -0.00193713 -0.00181003 -0.00193361 -0.00151485 -0.00181003 -0.0015552 -0.0018232 -0.00181003 -0.00193361 -0.0018232 -0.00193008 -0.00144706 -0.00183104 -0.00148602 -0.00181725 -0.00183104 -0.00192459 -0.00181725 -0.00193502 -0.00148602 -0.00181725 -0.0014797 -0.00184965 -0.00181725 -0.00193502 -0.00184965 -0.00194546 0.00535012 0.00149922 0.00488461 0.00130834 0.00149922 -0.0018111 0.00130834 -0.00194578 0.00488461 0.00130834 0.00458993 0.00120185 0.00130834 -0.00194578 0.00120185 -0.0019518 0.00458993 0.00120185 0.00448456 0.00121746 0.00120185 -0.0019518 0.00121746 -0.0018512 0.00448456 0.00121746 0.00449866 0.00135464 0.00121746 -0.0018512 0.00135464 -0.00178937 -0.0018111 -0.00200915 -0.00194578 -0.00203974 -0.00200915 -0.00180775 -0.00203974 -0.00179065 -0.00194578 -0.00203974 -0.0019518 -0.00205108 -0.00203974 -0.00179065 -0.00205108 -0.00177355 -0.0019518 -0.00205108 -0.0018512 -0.00201335 -0.00205108 -0.00177355 -0.00201335 -0.00182104 -0.0018512 -0.00201335 -0.00178937 -0.00182895 -0.00201335 -0.00182104 -0.00182895 -0.00186853 0.00649647 0.0075889 0.00567711 0.00701969 0.0075889 0.00517442 0.00701969 0.00615211 0.00567711 0.00701969 0.00485775 0.00659528 0.00701969 0.00615211 0.00659528 0.00670049 0.00485775 0.00659528 0.00458849 0.00597625 0.00659528 0.00670049 0.00597625 0.00771453 0.00458849 0.00597625 0.00431923 0.00583085 0.00597625 0.00771453 0.00583085 0.00743257 0.00431724 0.00583148 0.00458857 0.00597579 0.00583148 0.0074405 0.00597579 0.00771577 0.00458857 0.00597579 0.00485989 0.00659428 0.00597579 0.00771577 0.00659428 0.00669468 0.00485989 0.00659428 0.00568329 0.00701788 0.00659428 0.00669468 0.00701788 0.00614014 0.00568329 0.00701788 0.00650668 0.00758632 0.00701788 0.00614014 0.00758632 0.00515948 0.00591844 0.00785345 0.0055779 0.00784459 0.00785345 0.00421061 0.00784459 0.00423353 0.0055779 0.00784459 0.00523736 0.00767896 0.00784459 0.00423353 0.00767896 0.00425503 0.00421061 -0.000149713 0.00423353 -0.000164658 -0.000149713 -0.000928994 -0.000164658 -0.000944988 0.00423353 -0.000164658 0.00425503 -0.00020491 -0.000164658 -0.000944988 -0.00020491 -0.000937728 0.00523736 0.00767896 0.00586691 0.00812059 0.00767896 0.00425503 0.00812059 0.00411552 0.00586691 0.00812059 0.00649647 0.0075889 0.00812059 0.00411552 0.0075889 0.00517442 0.00425503 -0.00020491 0.00411552 -0.0002005 -0.00020491 -0.000937728 -0.0002005 -0.000859694 0.00411552 -0.0002005 0.00517442 -2.86542e-05 -0.0002005 -0.000859694 -2.86542e-05 -0.000835034 0.00650668 0.00758632 0.0058748 0.00811832 0.00758632 0.00515948 0.00811832 0.00410198 0.0058748 0.00811832 0.00524292 0.00767702 0.00811832 0.00410198 0.00767702 0.00424536 0.00515948 -5.54142e-05 0.00410198 -0.000224344 -5.54142e-05 -0.000868497 -0.000224344 -0.000886885 0.00410198 -0.000224344 0.00424536 -0.000221928 -0.000224344 -0.000886885 -0.000221928 -0.000956206 0.00524292 0.00767702 0.00558068 0.00784352 0.00767702 0.00424536 0.00784352 0.00422853 0.00558068 0.00784352 0.00591844 0.00785345 0.00784352 0.00422853 0.00785345 0.00421061 0.00424536 -0.000221928 0.00422853 -0.000173444 -0.000221928 -0.000956206 -0.000173444 -0.00095428 0.00422853 -0.000173444 0.00421061 -0.000149713 -0.000173444 -0.00095428 -0.000149713 -0.000928994 0.000695297 0.00319186 0.00156959 0.00472315 0.00319186 0.00568843 0.00472315 0.00582178 0.00156959 0.00472315 0.00244388 0.00469194 0.00472315 0.00582178 0.00469194 0.0062268 0.00568843 0.00234441 0.00582178 0.00192907 0.00234441 -0.00099962 0.00192907 -0.000408363 0.00582178 0.00192907 0.0062268 0.000908921 0.00192907 -0.000408363 0.000908921 -0.000238031 0.00244388 0.00469194 0.00338056 0.00547825 0.00469194 0.0062268 0.00547825 0.00766894 0.00338056 0.00547825 0.00431724 0.00583148 0.00547825 0.00766894 0.00583148 0.0074405 0.0062268 0.000908921 0.00766894 0.000697747 0.000908921 -0.000238031 0.000697747 -0.000208789 0.00766894 0.000697747 0.0074405 0.000988319 0.000697747 -0.000208789 0.000988319 -0.000476758 0.00431923 0.00583085 0.00338987 0.00547449 0.00583085 0.00743257 0.00547449 0.00765525 0.00338987 0.00547449 0.00246051 0.00469715 0.00547449 0.00765525 0.00469715 0.00623645 0.00743257 0.00097616 0.00765525 0.000680678 0.00097616 -0.000493293 0.000680678 -0.000232837 0.00765525 0.000680678 0.00623645 0.00083831 0.000680678 -0.000232837 0.00083831 -0.000261696 0.00246051 0.00469715 0.00157826 0.00467797 0.00469715 0.00623645 0.00467797 0.00570532 0.00157826 0.00467797 0.000696017 0.00324893 0.00467797 0.00570532 0.00324893 0.00580184 0.00623645 0.00083831 0.00570532 0.00208789 0.00083831 -0.000261696 0.00208789 -0.000546911 0.00570532 0.00208789 0.00580184 0.00212162 0.00208789 -0.000546911 0.00212162 -0.000353023 0.00580184 0.00212162 0.00557233 0.00176668 0.00212162 -0.000353023 0.00176668 -0.000216665 0.00557233 0.00176668 0.00534281 0.00237832 0.00176668 -0.000216665 0.00237832 -0.000586171 0.0031905 0.000869851 0.00326674 0.000894891 0.000869851 -0.00145079 0.000894891 -0.00140695 0.00326674 0.000894891 0.00334299 0.000910854 0.000894891 -0.00140695 0.000910854 -0.0013631 0.00334299 0.000910854 0.00335015 0.000935302 0.000910854 -0.0013631 0.000935302 -0.00136721 0.00335015 0.000935302 0.00335731 0.000948254 0.000935302 -0.00136721 0.000948254 -0.00137131 -0.0014797 -0.00166467 -0.00146908 -0.00171809 -0.00166467 -0.00184965 -0.00171809 -0.00186692 -0.00146908 -0.00171809 -0.00145846 -0.00167132 -0.00171809 -0.00186692 -0.00167132 -0.00188419 0.0070134 0.00499977 0.00710561 0.00511768 0.00499977 0.00298613 0.00511768 0.0029376 0.00710561 0.00511768 0.00717189 0.00503048 0.00511768 0.0029376 0.00503048 0.00288906 0.00264112 0.00310909 0.00274729 0.00320903 0.00310909 0.00357706 0.00320903 0.00351689 0.00274729 0.00320903 0.00285346 0.00331147 0.00320903 0.00351689 0.00331147 0.00345673 0.00285346 0.00331147 0.00309719 0.00340303 0.00331147 0.00345673 0.00340303 0.00342849 0.00309719 0.00340303 0.00334093 0.00354041 0.00340303 0.00342849 0.00354041 0.00340025 0.00819979 0.00789764 0.00764158 0.00759584 0.00789764 0.0072774 0.00759584 0.00717405 0.00764158 0.00759584 0.00708337 0.00720084 0.00759584 0.00717405 0.00720084 0.00703953 0.00708337 0.00720084 0.00654288 0.00675318 0.00720084 0.00703953 0.00675318 0.00674369 0.00654288 0.00675318 0.0060024 0.00622513 0.00675318 0.00674369 0.00622513 0.00644785 0.00334093 0.00354041 0.00372957 0.00367395 0.00354041 0.00340025 0.00367395 0.00339353 0.00372957 0.00367395 0.00411821 0.0037796 0.00367395 0.00339353 0.0037796 0.00344098 0.00340025 0.000968464 0.00339353 0.000979533 0.000968464 -0.00146332 0.000979533 -0.00146153 0.00339353 0.000979533 0.00344098 0.000973087 0.000979533 -0.00146153 0.000973087 -0.00145974 0.00344098 0.000973087 0.00344338 0.000973707 0.000973087 -0.00145974 0.000973707 -0.00143625 0.00344338 0.000973707 0.00344578 0.000972028 0.000973707 -0.00143625 0.000972028 -0.00141275 -0.00099962 0.00160052 -0.000703992 0.0022014 0.00160052 0.00420066 0.0022014 0.00423667 -0.000703992 0.0022014 -0.000408363 0.00242778 0.0022014 0.00423667 0.00242778 0.00451886 0.00420066 0.00465006 0.00423667 0.00509022 0.00465006 0.00538072 0.00509022 0.00574655 0.00423667 0.00509022 0.00451886 0.00547804 0.00509022 0.00574655 0.00547804 0.00611239 -0.0004