# vtk DataFile Version 3.0
#This file was generated by the deal.II library on 2023/3/1 at 4:17:40
ASCII
DATASET UNSTRUCTURED_GRID

FIELD FieldData 2
CYCLE 1 1 int
201
TIME 1 1 double
0.402
POINTS 9808 double
2.11836 0.707107 0.877452
1.62132 0.707107 1.62132
2.41809 0.92388 1.0016
1.85072 0.92388 1.85072
2.77164 -1 1.14805
2.12132 -1 2.12132
2.41809 -0.92388 1.0016
1.85072 -0.92388 1.85072
3.12519 -0.92388 1.2945
2.39192 -0.92388 2.39192
2.77164 -1 1.14805
2.12132 -1 2.12132
-2.12132 -1 -2.12132
-1.14805 -1 -2.77164
-1.85072 -0.92388 -1.85072
-1.0016 -0.92388 -2.41809
1.62132 0.707107 1.62132
0.877452 0.707107 2.11836
1.85072 0.92388 1.85072
1.0016 0.92388 2.41809
0.877452 0.707107 2.11836
1.40399e-16 0.707107 2.29289
1.0016 0.92388 2.41809
1.60264e-16 0.92388 2.61732
2.12132 -1 2.12132
1.14805 -1 2.77164
1.85072 -0.92388 1.85072
1.0016 -0.92388 2.41809
1.85072 -0.92388 1.85072
1.0016 -0.92388 2.41809
1.62132 -0.707107 1.62132
0.877452 -0.707107 2.11836
1.0016 -0.92388 2.41809
1.60264e-16 -0.92388 2.61732
0.877452 -0.707107 2.11836
1.40399e-16 -0.707107 2.29289
1.41865 -0.707107 3.42492
2.26995e-16 -0.707107 3.70711
1.2945 -0.92388 3.12519
2.0713e-16 -0.92388 3.38268
1.41421 1.22465e-16 1.41421
0.765367 1.22465e-16 1.84776
1.46804 0.382683 1.46804
0.794497 0.382683 1.91809
0.765367 1.22465e-16 1.84776
0 0 2
0.794497 0.382683 1.91809
1.27126e-16 0.382683 2.07612
1.46804 0.382683 1.46804
0.794497 0.382683 1.91809
1.62132 0.707107 1.62132
0.877452 0.707107 2.11836
1.84776 1.22465e-16 0.765367
1.41421 1.22465e-16 1.41421
1.91809 0.382683 0.794497
1.46804 0.382683 1.46804
1.91809 0.382683 0.794497
1.46804 0.382683 1.46804
2.11836 0.707107 0.877452
1.62132 0.707107 1.62132
2.82843 0 2.82843
1.53073 0 3.69552
2.7746 -0.382683 2.7746
1.5016 -0.382683 3.62519
2.7746 -0.382683 2.7746
1.5016 -0.382683 3.62519
2.62132 -0.707107 2.62132
1.41865 -0.707107 3.42492
-0.794497 0.382683 1.91809
-1.46804 0.382683 1.46804
-0.877452 0.707107 2.11836
-1.62132 0.707107 1.62132
-1.0016 -0.92388 2.41809
-1.85072 -0.92388 1.85072
-0.877452 -0.707107 2.11836
-1.62132 -0.707107 1.62132
-1.62132 0.707107 1.62132
-2.11836 0.707107 0.877452
-1.85072 0.92388 1.85072
-2.41809 0.92388 1.0016
-2 0 0
-1.84776 1.22465e-16 -0.765367
-2.07612 0.382683 2.54251e-16
-1.91809 0.382683 -0.794497
-2.07612 0.382683 2.54251e-16
-1.91809 0.382683 -0.794497
-2.29289 0.707107 2.80798e-16
-2.11836 0.707107 -0.877452
-1.91809 0.382683 -0.794497
-1.46804 0.382683 -1.46804
-2.11836 0.707107 -0.877452
-1.62132 0.707107 -1.62132
-2.11836 0.707107 -0.877452
-1.62132 0.707107 -1.62132
-2.41809 0.92388 -1.0016
-1.85072 0.92388 -1.85072
-2.07612 -0.382683 2.54251e-16
-1.91809 -0.382683 -0.794497
-2 0 0
-1.84776 1.22465e-16 -0.765367
1.91809 -0.382683 0.794497
1.46804 -0.382683 1.46804
1.84776 1.22465e-16 0.765367
1.41421 1.22465e-16 1.41421
1.62132 -0.707107 1.62132
0.877452 -0.707107 2.11836
1.46804 -0.382683 1.46804
0.794497 -0.382683 1.91809
0.877452 -0.707107 2.11836
1.40399e-16 -0.707107 2.29289
0.794497 -0.382683 1.91809
1.27126e-16 -0.382683 2.07612
-1.62132 0.707107 -1.62132
-1.27386 0.707107 -1.90647
-1.72847 0.83147 -1.72847
-1.35805 0.83147 -2.03247
-1.27386 0.707107 -1.90647
-0.877452 0.707107 -2.11836
-1.35805 0.83147 -2.03247
-0.935443 0.83147 -2.25836
-1.72847 0.83147 -1.72847
-1.35805 0.83147 -2.03247
-1.85072 0.92388 -1.85072
-1.4541 0.92388 -2.17622
-1.35805 0.83147 -2.03247
-0.935443 0.83147 -2.25836
-1.4541 0.92388 -2.17622
-1.0016 0.92388 -2.41809
2.29289 0.707107 0
2.24884 0.707107 0.447321
2.44443 0.83147 0
2.39746 0.83147 0.476885
2.24884 0.707107 0.447321
2.11836 0.707107 0.877452
2.39746 0.83147 0.476885
2.25836 0.83147 0.935443
2.44443 0.83147 0
2.39746 0.83147 0.476885
2.61732 0.92388 0
2.56703 0.92388 0.510613
2.39746 0.83147 0.476885
2.25836 0.83147 0.935443
2.56703 0.92388 0.510613
2.41809 0.92388 1.0016
-1.14805 -1 -2.77164
-0.585271 -1 -2.94236
-1.07339 -0.980785 -2.5914
-0.547211 -0.980785 -2.75101
-0.585271 -1 -2.94236
0 -1 -3
-0.547211 -0.980785 -2.75101
-5.15254e-16 -0.980785 -2.80491
-1.07339 -0.980785 -2.5914
-0.547211 -0.980785 -2.75101
-1.0016 -0.92388 -2.41809
-0.510613 -0.92388 -2.56703
-0.547211 -0.980785 -2.75101
-5.15254e-16 -0.980785 -2.80491
-0.510613 -0.92388 -2.56703
-4.80793e-16 -0.92388 -2.61732
2.61732 0.92388 0
2.56703 0.92388 0.510613
2.80491 0.980785 0
2.75101 0.980785 0.547211
2.56703 0.92388 0.510613
2.41809 0.92388 1.0016
2.75101 0.980785 0.547211
2.5914 0.980785 1.07339
2.80491 0.980785 0
2.75101 0.980785 0.547211
3 1 0
2.94236 1 0.585271
2.75101 0.980785 0.547211
2.5914 0.980785 1.07339
2.94236 1 0.585271
2.77164 1 1.14805
2.41809 0.92388 1.0016
2.17622 0.92388 1.4541
2.5914 0.980785 1.07339
2.3322 0.980785 1.55832
2.17622 0.92388 1.4541
1.85072 0.92388 1.85072
2.3322 0.980785 1.55832
1.98337 0.980785 1.98337
2.5914 0.980785 1.07339
2.3322 0.980785 1.55832
2.77164 1 1.14805
2.49441 1 1.66671
2.56703 -0.92388 0.510613
2.41809 -0.92388 1.0016
2.39746 -0.83147 0.476885
2.25836 -0.83147 0.935443
-1.85072 -0.92388 -1.85072
-1.4541 -0.92388 -2.17622
-1.72847 -0.83147 -1.72847
-1.35805 -0.83147 -2.03247
-1.4541 -0.92388 -2.17622
-1.0016 -0.92388 -2.41809
-1.35805 -0.83147 -2.03247
-0.935443 -0.83147 -2.25836
-1.72847 -0.83147 -1.72847
-1.35805 -0.83147 -2.03247
-1.62132 -0.707107 -1.62132
-1.27386 -0.707107 -1.90647
-1.35805 -0.83147 -2.03247
-0.935443 -0.83147 -2.25836
-1.27386 -0.707107 -1.90647
-0.877452 -0.707107 -2.11836
-1.0016 -0.92388 -2.41809
-0.510613 -0.92388 -2.56703
-0.935443 -0.83147 -2.25836
-0.476885 -0.83147 -2.39746
-0.510613 -0.92388 -2.56703
-4.80793e-16 -0.92388 -2.61732
-0.476885 -0.83147 -2.39746
-4.49034e-16 -0.83147 -2.44443
-0.935443 -0.83147 -2.25836
-0.476885 -0.83147 -2.39746
-0.877452 -0.707107 -2.11836
-0.447321 -0.707107 -2.24884
-0.476885 -0.83147 -2.39746
-4.49034e-16 -0.83147 -2.44443
-0.447321 -0.707107 -2.24884
-4.21198e-16 -0.707107 -2.29289
-1.85072 0.92388 -1.85072
-1.4541 0.92388 -2.17622
-1.98337 0.980785 -1.98337
-1.55832 0.980785 -2.3322
-1.4541 0.92388 -2.17622
-1.0016 0.92388 -2.41809
-1.55832 0.980785 -2.3322
-1.07339 0.980785 -2.5914
-1.98337 0.980785 -1.98337
-1.55832 0.980785 -2.3322
-2.12132 1 -2.12132
-1.66671 1 -2.49441
-1.55832 0.980785 -2.3322
-1.07339 0.980785 -2.5914
-1.66671 1 -2.49441
-1.14805 1 -2.77164
-3.62519 -0.382683 -1.5016
-3.26259 -0.382683 -2.17999
-3.53982 -0.55557 -1.46624
-3.18575 -0.55557 -2.12865
-3.26259 -0.382683 -2.17999
-2.7746 -0.382683 -2.7746
-3.18575 -0.55557 -2.12865
-2.70926 -0.55557 -2.70926
-3.53982 -0.55557 -1.46624
-3.18575 -0.55557 -2.12865
-3.42492 -0.707107 -1.41865
-3.08235 -0.707107 -2.05956
-3.18575 -0.55557 -2.12865
-2.70926 -0.55557 -2.70926
-3.08235 -0.707107 -2.05956
-2.62132 -0.707107 -2.62132
3 -1 0
2.94236 -1 0.585271
2.80491 -0.980785 0
2.75101 -0.980785 0.547211
2.94236 -1 0.585271
2.77164 -1 1.14805
2.75101 -0.980785 0.547211
2.5914 -0.980785 1.07339
2.80491 -0.980785 0
2.75101 -0.980785 0.547211
2.61732 -0.92388 0
2.56703 -0.92388 0.510613
2.75101 -0.980785 0.547211
2.5914 -0.980785 1.07339
2.56703 -0.92388 0.510613
2.41809 -0.92388 1.0016
-3.32588 0 -2.22228
-2.82843 0 -2.82843
-3.3099 -0.19509 -2.21161
-2.81484 -0.19509 -2.81484
-3.3099 -0.19509 -2.21161
-2.81484 -0.19509 -2.81484
-3.26259 -0.382683 -2.17999
-2.7746 -0.382683 -2.7746
-0.765367 1.22465e-16 -1.84776
-0.390181 1.22465e-16 -1.96157
-0.77272 0.19509 -1.86551
-0.393929 0.19509 -1.98042
-0.390181 1.22465e-16 -1.96157
0 0 -2
-0.393929 0.19509 -1.98042
-3.70924e-16 0.19509 -2.01921
-0.77272 0.19509 -1.86551
-0.393929 0.19509 -1.98042
-0.794497 0.382683 -1.91809
-0.405031 0.382683 -2.03623
-0.393929 0.19509 -1.98042
-3.70924e-16 0.19509 -2.01921
-0.405031 0.382683 -2.03623
-3.81377e-16 0.382683 -2.07612
2.41809 -0.92388 1.0016
2.17622 -0.92388 1.4541
2.25836 -0.83147 0.935443
2.03247 -0.83147 1.35805
2.17622 -0.92388 1.4541
1.85072 -0.92388 1.85072
2.03247 -0.83147 1.35805
1.72847 -0.83147 1.72847
2.25836 -0.83147 0.935443
2.03247 -0.83147 1.35805
2.11836 -0.707107 0.877452
1.90647 -0.707107 1.27386
2.03247 -0.83147 1.35805
1.72847 -0.83147 1.72847
1.90647 -0.707107 1.27386
1.62132 -0.707107 1.62132
3.42492 -0.707107 1.41865
3.08235 -0.707107 2.05956
3.28492 -0.83147 1.36066
2.95635 -0.83147 1.97537
3.08235 -0.707107 2.05956
2.62132 -0.707107 2.62132
2.95635 -0.83147 1.97537
2.51417 -0.83147 2.51417
3.28492 -0.83147 1.36066
2.95635 -0.83147 1.97537
3.12519 -0.92388 1.2945
2.8126 -0.92388 1.87932
2.95635 -0.83147 1.97537
2.51417 -0.83147 2.51417
2.8126 -0.92388 1.87932
2.39192 -0.92388 2.39192
3.38268 -0.92388 0
3.31769 -0.92388 0.659929
3.19509 -0.980785 0
3.1337 -0.980785 0.623331
3.31769 -0.92388 0.659929
3.12519 -0.92388 1.2945
3.1337 -0.980785 0.623331
2.95188 -0.980785 1.22271
3.19509 -0.980785 0
3.1337 -0.980785 0.623331
3 -1 0
2.94236 -1 0.585271
3.1337 -0.980785 0.623331
2.95188 -0.980785 1.22271
2.94236 -1 0.585271
2.77164 -1 1.14805
-1.46804 0.382683 -1.46804
-1.15343 0.382683 -1.72623
-1.53338 0.55557 -1.53338
-1.20477 0.55557 -1.80307
-1.15343 0.382683 -1.72623
-0.794497 0.382683 -1.91809
-1.20477 0.55557 -1.80307
-0.829861 0.55557 -2.00346
-1.53338 0.55557 -1.53338
-1.20477 0.55557 -1.80307
-1.62132 0.707107 -1.62132
-1.27386 0.707107 -1.90647
2.77164 1 1.14805
2.49441 1 1.66671
2.95188 0.980785 1.22271
2.65662 0.980785 1.7751
2.95188 0.980785 1.22271
2.65662 0.980785 1.7751
3.12519 0.92388 1.2945
2.8126 0.92388 1.87932
3 1 0
2.94236 1 0.585271
3.19509 0.980785 0
3.1337 0.980785 0.623331
2.94236 1 0.585271
2.77164 1 1.14805
3.1337 0.980785 0.623331
2.95188 0.980785 1.22271
3.19509 0.980785 0
3.1337 0.980785 0.623331
3.38268 0.92388 0
3.31769 0.92388 0.659929
3.1337 0.980785 0.623331
2.95188 0.980785 1.22271
3.31769 0.92388 0.659929
3.12519 0.92388 1.2945
-3.92314 0 -0.780361
-3.69552 0 -1.53073
-3.9043 -0.19509 -0.776613
-3.67777 -0.19509 -1.52338
-0.794497 0.382683 -1.91809
-0.405031 0.382683 -2.03623
-0.829861 0.55557 -2.00346
-0.423059 0.55557 -2.12686
-0.405031 0.382683 -2.03623
-3.81377e-16 0.382683 -2.07612
-0.423059 0.55557 -2.12686
[...]
POINT_DATA 9808
SCALARS U double 1
LOOKUP_TABLE default
0.0043841 0.0051747 0.00401528 0.00494121 0.00333366 0.00435305 0.0039459 0.00461349 0.00265893 0.00396433 0.00333366 0.00435305 0.00410092 0.00495502 0.00442516 0.00522899 0.0051747 0.00559405 0.00494121 0.00496842 0.00559405 0.00568894 0.00496842 0.00523169 0.00435305 0.00462333 0.00461349 0.00513833 0.00461349 0.00513833 0.0049724 0.00571027 0.00513833 0.00523756 0.00571027 0.00573924 0.00434796 0.00415074 0.00438211 0.00435446 0.0055319 0.00623912 0.00538789 0.00604969 0.00623912 0.00616759 0.00604969 0.00600726 0.00538789 0.00604969 0.0051747 0.00559405 0.00478051 0.0055319 0.00470525 0.00538789 0.00470525 0.00538789 0.0043841 0.0051747 0.0035681 0.00405835 0.00346333 0.00423077 0.00346333 0.00423077 0.00357748 0.00434796 0.00540923 0.00484983 0.00499931 0.00420593 0.0045755 0.00322512 0.00503625 0.00374339 0.00420593 0.00473046 0.00353979 0.00386291 0.00574907 0.00554526 0.00559596 0.00517767 0.00559596 0.00517767 0.00506452 0.00464391 0.00517767 0.00479613 0.00464391 0.00448836 0.00464391 0.00448836 0.00434634 0.00435027 0.00568579 0.00569204 0.00574907 0.00554526 0.00460374 0.00538265 0.00478051 0.0055319 0.0049724 0.00571027 0.00538265 0.00613226 0.00571027 0.00573924 0.00613226 0.00609294 0.00448836 0.00500829 0.00441932 0.00491212 0.00500829 0.00583874 0.00491212 0.00573173 0.00441932 0.00491212 0.00435027 0.00483118 0.00491212 0.00573173 0.00483118 0.00557719 0.00569559 0.00485807 0.00462807 0.00450892 0.00485807 0.0043841 0.00450892 0.00419969 0.00462807 0.00450892 0.00356038 0.00413442 0.00450892 0.00419969 0.00413442 0.00401528 0.00495502 0.00501547 0.005092 0.0051343 0.00501547 0.00481746 0.0051343 0.00497051 0.005092 0.0051343 0.00522899 0.0053054 0.0051343 0.00497051 0.0053054 0.00517054 0.00356038 0.00413442 0.00324316 0.00378309 0.00413442 0.00401528 0.00378309 0.00363092 0.00324316 0.00378309 0.00284667 0.00340852 0.00378309 0.00363092 0.00340852 0.00329298 0.00401528 0.00447825 0.00363092 0.00430745 0.00447825 0.00494121 0.00430745 0.00475102 0.00363092 0.00430745 0.00329298 0.00403036 0.00375297 0.0039459 0.00382332 0.00420192 0.00442516 0.00482707 0.00461079 0.00493841 0.00482707 0.00522899 0.00493841 0.00546641 0.00461079 0.00493841 0.0047882 0.00507123 0.00493841 0.00546641 0.00507123 0.00568212 0.00522899 0.0053054 0.00546641 0.00555986 0.0053054 0.00517054 0.00555986 0.00546747 0.00546641 0.00555986 0.00568212 0.00582337 0.00555986 0.00546747 0.00582337 0.00577893 0.00435027 0.00483118 0.00425845 0.00474742 0.00483118 0.00557719 0.00474742 0.00542811 0.00425845 0.00474742 0.00412706 0.00464158 0.00474742 0.00542811 0.00464158 0.00528363 0.00212535 0.00322985 0.00230675 0.00325001 0.00322985 0.00388614 0.00325001 0.00385552 0.00230675 0.00325001 0.00263719 0.00333481 0.00325001 0.00385552 0.00333481 0.00377974 0.002665 0.00329393 0.00296293 0.00368248 0.00329393 0.00333366 0.00368248 0.00363978 0.00296293 0.00368248 0.00370254 0.00375297 0.00368248 0.00363978 0.00375297 0.0039459 0.00334477 0.0038175 0.00327671 0.00386199 0.00327671 0.00386199 0.00322985 0.00388614 0.00589403 0.00603064 0.00590221 0.00603048 0.00603064 0.00599263 0.00603048 0.00602448 0.00590221 0.00603048 0.005903 0.00604582 0.00603048 0.00602448 0.00604582 0.00604301 0.0039459 0.0042797 0.00420192 0.00450029 0.0042797 0.00461349 0.00450029 0.00479295 0.00420192 0.00450029 0.00440563 0.00468488 0.00450029 0.00479295 0.00468488 0.0049724 0.0021416 0.00284474 0.00241181 0.00308896 0.00284474 0.00357748 0.00308896 0.00374627 0.00241181 0.00308896 0.00265893 0.00331163 0.00308896 0.00374627 0.00331163 0.00396433 0.00218487 0.00237442 0.00222412 0.00299575 0.00237442 0.00265893 0.00299575 0.00299629 0.00222412 0.00299575 0.002665 0.00329393 0.00299575 0.00299629 0.00329393 0.00333366 0.00479613 0.00525231 0.00464224 0.00512575 0.00525231 0.005903 0.00512575 0.00588917 0.00464224 0.00512575 0.00448836 0.00500829 0.00329298 0.00403036 0.00290978 0.00376077 0.00290978 0.00376077 0.00263176 0.00345597 0.00284667 0.00340852 0.00236211 0.00306642 0.00340852 0.00329298 0.00306642 0.00290978 0.00236211 0.00306642 0.00221364 0.00244217 0.00306642 0.00290978 0.00244217 0.00263176 0.00215735 0.00216881 0.00221778 0.00209976 0.005903 0.00604582 0.00588917 0.00606711 0.00604582 0.00604301 0.00606711 0.00602539 0.00606711 0.00602539 0.00606542 0.0059366 0.00181272 0.00241181 0.00237442 0.00265893 0.00263176 0.00345597 0.0024074 0.00317997 0.00345597 0.00416342 0.00317997 0.00397566 0.0024074 0.00317997 0.00208696 0.0029549 0.00317997 0.00397566 0.0029549 0.00380136 0.00532212 0.00589403 0.00532808 0.00590221 0.00532808 0.00590221 0.00525231 0.005903 0.00507123 0.00568212 0.00520664 0.0058235 0.00520664 0.0058235 0.0052599 0.00588643 0.00492687 0.0052599 0.00492809 0.00528193 0.0052599 0.00588643 0.00528193 0.0058928 0.00528193 0.0058928 0.00532212 0.00589403 0.00588643 0.00607073 0.0058928 0.00604985 0.00607073 0.00599447 0.00604985 0.00597501 0.0058928 0.00604985 0.00589403 0.00603064 0.00604985 0.00597501 0.00603064 0.00599263 0.00496842 0.00510005 0.00470273 0.0049247 0.00510005 0.00523169 0.0049247 0.00497455 0.00470273 0.0049247 0.00446077 0.00472917 0.00145136 0.00167041 0.00138147 0.00169666 0.00494121 0.00495481 0.00475102 0.00473731 0.00495481 0.00496842 0.00473731 0.00470273 0.00475102 0.00473731 0.00460651 0.00453418 0.00473731 0.00470273 0.00453418 0.00446077 0.00388614 0.00438517 0.00385552 0.00435444 0.00438517 0.00455618 0.00435444 0.00461127 0.00385552 0.00435444 0.00377974 0.0043325 0.00435444 0.00461127 0.0043325 0.00467069 0.00184946 0.00259825 0.00201035 0.00267035 0.00259825 0.00346333 0.00267035 0.00352041 0.00267035 0.00352041 0.00284474 0.00357748 0.00377974 0.0043325 0.00373124 0.00433003 0.0043325 0.00467069 0.00433003 0.00474538 0.00373124 0.00433003 0.00377929 0.00438151 0.00433003 0.00474538 0.00438151 0.00481887 0.00261068 0.0035681 0.00259466 0.00351572 0.00169666 0.00259466 0.00184946 0.00259825 0.00259466 0.00351572 0.00259825 0.00346333 0.00377929 0.00438151 0.00391574 0.00446889 0.00438151 0.00481887 0.00446889 0.00487895 0.00391574 0.00446889 0.00410092 0.00452797 0.00446889 0.00487895 0.00452797 0.00495502 0.00481887 0.00465639 0.00487895 0.00487035 0.00465639 0.00447913 0.00487035 0.00461752 0.00487895 0.00487035 0.00495502 0.00501547 0.00487035 0.00461752 0.00501547 0.00481746 0.00606542 0.0059366 0.00599296 0.00582756 0.00422115 0.004263 0.00410521 0.00422276 0.00410521 0.00422276 0.00400075 0.00418781 0.00451327 0.00402762 0.00428676 0.00381643 0.00402762 0.00353979 0.00381643 0.00323424 0.00428676 0.00381643 0.0040887 0.00366373 0.00381643 0.00323424 0.00366373 0.00298582 0.00164106 0.00208696 0.00148101 0.00190401 0.00190401 0.00280674 0.00178241 0.00270886 0.00280674 0.00371321 0.00270886 0.00364485 0.00146253 0.00170019 0.00145136 0.00167041 0.00581259 0.00577511 0.0054986 0.00565331 0.00178241 0.00270886 0.00170019 0.00264941 0.00270886 0.00364485 0.00264941 0.00360354 0.00170019 0.00264941 0.00167041 0.00261068 0.00264941 0.00360354 0.00261068 0.0035681 0.00198902 0.00221176 0.00194631 0.00218097 0.00194631 0.00218097 0.00192739 0.00215836 0.00462333 0.00467944 0.00488083 0.0049279 0.00467944 0.00470439 0.0049279 0.00496294 0.00488083 0.0049279 0.00513833 0.00518794 0.0049279 0.00496294 0.00518794 0.00523756 0.00412706 0.00464158 0.00397216 0.00452945 0.00464158 0.00528363 0.00452945 0.00514588 0.00397216 0.00452945 0.0038202 0.00443845 0.00452945 0.00514588 0.00443845 0.00499451 0.00438211 0.00436828 0.00449867 0.00452315 0.00436828 0.00435446 0.00452315 0.00450187 0.00449867 0.00452315 0.00462333 0.00467944 0.00446077 0.00472917 0.00434945 0.00453935 0.00434945 0.00453935 0.004263 0.00438226 0.0038175 0.00442681 0.00386199 0.00441335 0.00442681 0.00450543 0.00441335 0.00451968 0.00386199 0.00441335 0.00388614 0.00438517 0.00441335 0.00451968 0.00438517 0.00455618 0.00455618 0.00377794 0.00461127 0.00392799 0.00461127 0.00392799 0.00467069 0.00413062 0.00122784 0.00114804 0.000998087 0.00118137 0.00114804 0.00184946 0.00118137 0.00201035 0.000998087 0.00118137 0.00154928 0.00143639 0.00118137 0.00201035 0.00143639 0.0021416 0.00357748 0.00396272 0.00374627 0.00406047 0.00396272 0.00434796 0.00406047 0.00436503 0.00374627 0.00406047 0.00396433 0.00415709 0.00406047 0.00436503 0.00415709 0.00438211 0.00396433 0.00415709 0.00415869 0.00430665 0.00415709 0.00438211 0.00430665 0.00449867 0.00415869 0.00430665 0.00435305 0.00448819 0.00430665 0.00449867 0.00448819 0.00462333 0.00409533 0.00365733 0.00432908 0.00376716 0.00432908 0.00376716 0.0045755 0.00390031 0.00376716 0.00305559 0.00390031 0.00322512 0.00333263 0.003657 0.003335 0.00367186 0.003335 0.00367186 0.00337298 0.00372159 0.0038202 0.00443845 0.00370802 0.0043877 0.00443845 0.00499451 0.0043877 0.00484836 0.00370802 0.0043877 0.003657 0.00437245 0.0043877 0.00484836 0.00437245 0.00472974 0.00192739 0.00215836 0.00189711 0.00214373 0.00215836 0.0022656 0.00214373 0.00224813 0.00189711 0.00214373 0.00185571 0.00215735 0.00214373 0.00224813 0.00215735 0.00216881 0.00460651 0.00453418 0.00438792 0.00437089 0.00453418 0.00446077 0.00437089 0.00434945 0.00438792 0.00437089 0.00416342 0.00422115 0.00437089 0.00434945 0.00422115 0.004263 0.00604969 0.00602848 0.00582187 0.00585367 0.00602848 0.00600726 0.00585367 0.00584553 0.00582187 0.00585367 0.00559405 0.0056415 0.00585367 0.00584553 0.0056415 0.00568894 0.00612533 0.00532239 0.00608658 0.00530222 0.00532239 0.00478051 0.00530222 0.00474288 0.00608658 0.00530222 0.00602711 0.00523259 0.00530222 0.00474288 0.00523259 0.00470525 0.00405496 0.00392549 0.00404767 0.00387868 0.00404767 0.00387868 0.00405835 0.00388365 0.00602711 0.00523259 0.00582887 0.00507126 0.00523259 0.00470525 0.00507126 0.00454467 0.00582887 0.00507126 0.00569559 0.00485807 0.00507126 0.00454467 0.00485807 0.0043841 0.00503625 0.00438982 0.00523626 0.00464267 0.00438982 0.00374339 0.00464267 0.00410802 0.00523626 0.00464267 0.00541608 0.00493223 0.00464267 0.00410802 0.00493223 0.00451812 0.00413062 0.00462404 0.00438533 0.00453303 0.00474538 0.00438533 0.00481887 0.00465639 0.00438533 0.00453303 0.00465639 0.00447913 0.00405616 0.003371 0.00404878 0.00337809 0.003371 0.00365174 0.00337809 0.0036065 0.00337809 0.0036065 0.00338851 0.00351942 0.00523169 0.00486035 0.00497455 0.00449839 0.00486035 0.00451327 0.00449839 0.00428676 0.00449839 0.00428676 0.00415543 0.0040887 0.0036065 0.00349086 0.00351942 0.00342833 0.00349086 0.00276539 0.00342833 0.00274897 0.00380136 0.00400075 0.00371321 0.00392225 0.00400075 0.00418781 0.00392225 0.00411908 0.00371321 0.00392225 0.00364485 0.00385475 0.00392225 0.00411908 0.00385475 0.00405496 0.00499451 0.00465082 0.00484836 0.00446705 0.00465082 0.00462825 0.00446705 0.00449158 0.00446705 0.00449158 0.00424101 0.00451795 0.00349987 0.00337263 0.00360956 0.00340893 0.00360956 0.00340893 0.00375605 0.00347376 0.004263 0.00438226 0.00422276 0.00423188 0.00438226 0.00438792 0.00423188 0.00426867 0.00422276 0.00423188 0.00418781 0.004108 0.00423188 0.00426867 0.004108 0.00419215 0.003657 0.00437245 0.00367186 0.00437714 0.00437245 0.00472974 0.00437714 0.00464513 0.00367186 0.00437714 0.00372159 0.00439519 0.00437714 0.00464513 0.00439519 0.00457623 0.0040887 0.00366373 0.00392248 0.00354741 0.00392248 0.00354741 0.0037863 0.00345982 0.00348923 0.00358073 0.00342541 0.00354258 0.00472974 0.00424101 0.00464513 0.00401782 0.00424101 0.00451795 0.00401782 0.0046014 0.00464513 0.00401782 0.00457623 0.00382394 0.0035731 0.00345379 0.00363394 0.00350856 0.00345379 0.00269453 0.00350856 0.00272908 0.00503877 0.00531684 0.00485407 0.00522332 0.00484983 0.00485407 0.00452788 0.0046241 0.00485407 0.00522332 0.0046241 0.0050173 0.00452788 0.0046241 0.00420593 0.0044682 0.0046241 0.0050173 0.0044682 0.00473046 0.0033845 0.0035731 0.00336923 0.00363394 0.00406705 0.00336923 0.00405616 0.003371 0.00336923 0.00363394 0.003371 0.00365174 0.00372159 0.00439519 0.00377051 0.00441707 0.00439519 0.00457623 0.00441707 0.00452841 0.00377051 0.00441707 0.0038175 0.00442681 0.00441707 0.00452841 0.00442681 0.00450543 0.00364485 0.00385475 0.00360354 0.00383248 0.00385475 0.00405496 0.00383248 0.00404767 0.00360354 0.00383248 0.0035681 0.00381322 0.00383248 0.00404767 0.00381322 0.00405835 0.00451812 0.00456545 0.00486671 0.00488482 0.00456545 0.00507443 0.00488482 0.00524521 0.0022656 0.00337298 0.00224813 0.00338731 0.00337298 0.00372159 0.00338731 0.00377051 0.00224813 0.00338731 0.00216881 0.00334477 0.00338731 0.00377051 0.00334477 0.0038175 0.0032959 0.00210181 0.00327567 0.00194829 0.00314305 0.00211018 0.00324797 0.00211161 0.00324797 0.00211161 0.0032959 0.00210181 0.00554526 0.00514357 0.00536147 0.00508605 0.00514357 0.00495231 0.00508605 0.00494506 0.00536147 0.00508605 0.00517767 0.0049869 0.00508605 0.00494506 0.0049869 0.00479613 0.00557143 0.00529991 0.00550634 0.00527329 0.00529991 0.00506946 0.00527329 0.00504737 0.00550634 0.00527329 0.00540923 0.00512953 0.00527329 0.00504737 0.00512953 0.00484983 0.00541608 0.00493223 0.00550986 0.00517988 0.00493223 0.00451812 0.00517988 0.00486671 0.00550986 0.00517988 0.00557143 0.00529991 0.00517988 0.00486671 0.00529991 0.00506946 0.00515588 0.00469675 0.00548302 0.0049844 0.00469675 0.00442516 0.0049844 0.00461079 0.00548302 0.0049844 0.00568527 0.00521396 0.0049844 0.00461079 0.00521396 0.0047882 0.00568527 0.00521396 0.00573871 0.00528505 0.00521396 0.0047882 0.00528505 0.00492084 0.00573871 0.00528505 0.00569204 0.00523379 0.00528505 0.00492084 0.00523379 0.00492687 0.00354861 0.00373498 0.00401001 0.00398246 0.00373498 0.00377929 0.00398246 0.00391574 0.00401001 0.00398246 0.0044163 0.00420177 0.00398246 0.00391574 0.00420177 0.00410092 0.00195403 0.00186518 0.00211018 0.00201822 0.00211018 0.00201822 0.00211161 0.00202257 0.00522332 0.0054239 0.0050173 0.00532318 0.0054239 0.00559596 0.00532318 0.00533024 0.0050173 0.00532318 0.00473046 0.00502143 0.00532318 0.00533024 0.00502143 0.00506452 0.00295732 0.00359737 0.00254584 0.00304985 0.00359737 0.00379595 0.00304985 0.00334279 0.00254584 0.00304985 0.00226067 0.00260366 0.00304985 0.00334279 0.00260366 0.00288667 0.00473046 0.00502143 0.00429668 0.00454172 0.00429668 0.00454172 0.00386291 0.00392953 0.00454172 0.0046003 0.00392953 0.00405334 0.00379595 0.00398614 0.00334279 0.00377464 0.00398614 0.00412706 0.00377464 0.00397216 0.00334279 0.00377464 0.00288667 0.00356761 0.00377464 0.00397216 0.00356761 0.0038202 0.00226067 0.00260366 0.00208424 0.00233128 0.00260366 0.00288667 0.00233128 0.00253857 0.00208424 0.00233128 0.00198902 0.00221176 0.00233128 0.00253857 0.00221176 0.00234519 0.00599263 0.00547915 0.00602448 0.00549642 0.00549642 0.00534948 0.00550272 0.00530522 0.00386291 0.00392953 0.00334378 0.00332295 0.00392953 0.00405334 0.00332295 0.00347757 0.00332295 0.00347757 0.00281462 0.00295732 0.00353979 0.00370135 0.00323424 0.00328415 0.00370135 0.00386291 0.00328415 0.00334378 0.00323424 0.00328415 0.00298582 0.00298371 0.00328415 0.00334378 0.00298371 0.00289329 0.00405835 0.00388365 0.00414456 0.00391777 0.00388365 0.00405616 0.00391777 0.00404878 0.00414456 0.00391777 0.00423077 0.00397426 0.00391777 0.00404878 0.00397426 0.00405685 0.00423077 0.00397426 0.00428936 0.00406583 0.00397426 0.00405685 0.00406583 0.00409093 0.00428936 0.00406583 0.00434796 0.00424935 0.00406583 0.00409093 0.00424935 0.00415074 0.0059366 0.00546142 0.00582756 0.00528694 0.00546142 0.00499439 0.00528694 0.00479565 0.00582756 0.00528694 0.00577511 0.00502863 0.00528694 0.00479565 0.00502863 0.00459956 0.00418781 0.004108 0.00411908 0.00400311 0.00411908 0.00400311 0.00405496 0.00392549 0.00400311 0.00413326 0.00392549 0.0040926 0.00481746 0.00406558 0.00497051 0.00435337 0.00497051 0.00435337 0.00517054 0.00469835 0.0058235 0.00600238 0.00588643 0.00607073 0.00292543 0.00301561 0.00305559 0.00314802 0.00301561 0.0034973 0.00314802 0.00362354 0.00305559 0.00314802 0.00322512 0.00331334 0.00314802 0.00362354 0.00331334 0.00383754 0.00530224 0.00445055 0.00534948 0.00440401 0.00445055 0.00379617 0.00440401 0.00372094 0.00534948 0.00440401 0.00530522 0.00440192 0.00440401 0.00372094 0.00440192 0.00390282 0.00322512 0.00331334 0.00348425 0.00353188 0.00331334 0.00383754 0.00353188 0.00412739 0.00348425 0.00353188 0.00374339 0.00382793 0.00353188 0.00412739 0.00382793 0.00445592 0.00351942 0.00342833 0.00347042 0.00337686 0.00342833 0.00274897 0.00337686 0.00272549 0.00347042 0.00337686 0.00349987 0.00337263 0.00415074 0.003453 0.0042526 0.00353698 0.003453 0.00349987 0.00353698 0.00360956 0.0042526 0.00353698 0.00435446 0.00368291 0.00353698 0.00360956 0.00368291 0.00375605 0.00368291 0.00375605 0.00396368 0.00391994 0.00396368 0.00391994 0.00437822 0.00409533 0.00375605 0.00347376 0.00391994 0.00355496 0.00391994 0.00355496 0.00409533 0.00365733 0.00415543 0.0040887 0.00388891 0.00392248 0.00388891 0.00392248 0.00369951 0.0037863 0.00438792 0.00369951 0.00426867 0.00357468 0.00369951 0.0037863 0.00357468 0.00366861 0.00426867 0.00357468 0.00419215 0.00348923 0.00357468 0.00366861 0.00348923 0.00358073 0.00383754 0.00416827 0.00412739 0.00458986 0.00416827 0.00431618 0.00458986 0.00477605 0.00412739 0.00458986 0.00445592 0.0050031 0.00458986 0.00477605 0.0050031 0.00519458 0.0037863 0.00345982 0.00366861 0.00340248 0.00366861 0.00340248 0.00358073 0.00337802 0.00374339 0.00382793 0.00410802 0.00417953 0.00382793 0.00445592 0.00417953 0.00478499 0.00417953 0.00478499 0.00456545 0.00507443 0.00438218 0.00358425 0.00455222 0.0035995 0.00358425 0.00302813 0.0035995 0.0029257 0.00455222 0.0035995 0.00467649 0.00361201 0.0035995 0.0029257 0.00361201 0.00274934 0.00358073 0.00337802 0.00354258 0.00339628 0.00337802 0.00264851 0.00339628 0.00266937 0.00354258 0.00339628 0.0035731 0.00345379 0.00339628 0.00266937 0.00345379 0.00269453 0.00445592 0.0050031 0.00478499 0.00527895 0.0050031 0.00519458 0.00527895 0.00549361 0.00478499 0.00527895 0.00507443 0.0053926 0.00527895 0.00549361 0.0053926 0.00568579 0.00599447 0.00537514 0.00597501 0.00542932 0.00597501 0.00542932 0.00599263 0.00547915 0.0027623 0.00249821 0.00276539 0.00259139 0.00249821 0.00223225 0.00259139 0.00226713 0.00276539 0.00259139 0.00274897 0.00264901 0.00259139 0.00226713 0.00264901 0.00235428 0.00369298 0.00313764 0.00378636 0.0031248 0.0031248 0.00205935 0.00316626 0.00249517 0.00409443 0.00341594 0.00438218 0.00358425 0.00223225 0.00251844 0.00226713 0.00254566 0.00251844 0.00185571 0.00254566 0.00183746 0.00226713 0.00254566 0.00235428 0.00261274 0.00254566 0.00183746 0.00261274 0.00189538 0.00274897 0.00264901 0.00272549 0.00266503 0.00264901 0.00235428 0.00266503 0.00251563 0.00272549 0.00266503 0.00270724 0.00268627 0.00266503 0.00251563 0.00268627 0.00275408 0.00421492 0.00301286 0.00410009 0.00308008 0.00301286 0.00225112 0.00308008 0.00194091 0.00398693 0.0031051 0.00395788 0.00311243 0.0031051 0.00185398 0.00311243 0.00195403 0.00311243 0.00195403 0.00314305 0.00211018 0.00302813 0.00289268 0.0029257 0.00304949 0.0029257 0.00304949 0.00274934 0.00299519 0.00235428 0.00261274 0.00251563 0.0027476 0.00261274 0.00189538 0.0027476 0.00206509 0.00251563 0.0027476 0.00275408 0.00296541 0.0027476 0.00206509 0.00296541 0.00234263 0.00270724 0.00268627 0.00271002 0.00273151 0.00268627 0.00275408 0.00273151 0.0030138 0.00271002 0.00273151 0.0027451 0.00280464 0.00273151 0.0030138 0.00280464 0.0032292 0.00296541 0.00234263 0.00321971 0.00268818 0.0030138 0.00321971 0.0032292 0.00344225 0.00321971 0.00268818 0.00344225 0.00303147 0.0027451 0.00280464 0.0028238 0.00290536 0.00280464 0.0032292 0.00290536 0.00338596 0.0028238 0.00290536 0.00292543 0.00301561 0.00290536 0.00338596 0.00301561 0.0034973 0.0032292 0.00344225 0.00338596 0.00360223 0.00344225 0.00303147 0.00360223 0.00333194 0.00338596 0.00360223 0.0034973 0.00369986 0.00360223 0.00333194 0.00369986 0.00359877 0.00298582 0.00298371 0.00280867 0.00277644 0.00298371 0.00289329 0.00277644 0.00258428 0.00280867 0.00277644 0.00270128 0.00265445 0.0