# vtk DataFile Version 3.0
#This file was generated by the deal.II library on 2023/3/1 at 3:10:04
ASCII
DATASET UNSTRUCTURED_GRID

FIELD FieldData 2
CYCLE 1 1 int
119
TIME 1 1 double
0.238
POINTS 13408 double
-1.85072 0.92388 1.85072
-2.41809 0.92388 1.0016
-2.12132 1 2.12132
-2.77164 1 1.14805
-2.41809 0.92388 1.0016
-2.61732 0.92388 3.20529e-16
-2.77164 1 1.14805
-3 1 0
-3.42492 -0.707107 1.41865
-3.70711 -0.707107 4.5399e-16
-3.12519 -0.92388 1.2945
-3.38268 -0.92388 4.14259e-16
2.39192 -0.92388 -2.39192
3.12519 -0.92388 -1.2945
2.12132 -1 -2.12132
2.77164 -1 -1.14805
2.39192 0.92388 -2.39192
3.12519 0.92388 -1.2945
2.62132 0.707107 -2.62132
3.42492 0.707107 -1.41865
2.11836 -0.707107 -0.877452
2.29289 -0.707107 0
1.91809 -0.382683 -0.794497
2.07612 -0.382683 0
1.91809 -0.382683 -0.794497
2.07612 -0.382683 0
1.84776 1.22465e-16 -0.765367
2 0 0
-2.12132 1 2.12132
-2.77164 1 1.14805
-2.39192 0.92388 2.39192
-3.12519 0.92388 1.2945
-1.41421 1.22465e-16 1.41421
-1.66294 1.22465e-16 1.11114
-1.4278 0.19509 1.4278
-1.67892 0.19509 1.12182
-1.66294 1.22465e-16 1.11114
-1.84776 1.22465e-16 0.765367
-1.67892 0.19509 1.12182
-1.86551 0.19509 0.77272
-1.4278 0.19509 1.4278
-1.67892 0.19509 1.12182
-1.46804 0.382683 1.46804
-1.72623 0.382683 1.15343
-1.67892 0.19509 1.12182
-1.86551 0.19509 0.77272
-1.72623 0.382683 1.15343
-1.91809 0.382683 0.794497
-1.84776 1.22465e-16 0.765367
-1.96157 1.22465e-16 0.390181
-1.86551 0.19509 0.77272
-1.98042 0.19509 0.393929
-1.96157 1.22465e-16 0.390181
-2 0 0
-1.98042 0.19509 0.393929
-2.01921 0.19509 2.47282e-16
-1.86551 0.19509 0.77272
-1.98042 0.19509 0.393929
-1.91809 0.382683 0.794497
-2.03623 0.382683 0.405031
-1.98042 0.19509 0.393929
-2.01921 0.19509 2.47282e-16
-2.03623 0.382683 0.405031
-2.07612 0.382683 2.54251e-16
3 -1 0
2.94236 -1 0.585271
2.80491 -0.980785 0
2.75101 -0.980785 0.547211
2.80491 -0.980785 0
2.75101 -0.980785 0.547211
2.61732 -0.92388 0
2.56703 -0.92388 0.510613
2.75101 -0.980785 0.547211
2.5914 -0.980785 1.07339
2.56703 -0.92388 0.510613
2.41809 -0.92388 1.0016
2.61732 -0.92388 0
2.56703 -0.92388 0.510613
2.44443 -0.83147 0
2.39746 -0.83147 0.476885
2.44443 -0.83147 0
2.39746 -0.83147 0.476885
2.29289 -0.707107 0
2.24884 -0.707107 0.447321
-1.91809 0.382683 0.794497
-2.03623 0.382683 0.405031
-2.00346 0.55557 0.829861
-2.12686 0.55557 0.423059
-2.03623 0.382683 0.405031
-2.07612 0.382683 2.54251e-16
-2.12686 0.55557 0.423059
-2.16853 0.55557 2.65568e-16
-2.00346 0.55557 0.829861
-2.12686 0.55557 0.423059
-2.11836 0.707107 0.877452
-2.24884 0.707107 0.447321
-2.12686 0.55557 0.423059
-2.16853 0.55557 2.65568e-16
-2.24884 0.707107 0.447321
-2.29289 0.707107 2.80798e-16
-1.46804 0.382683 1.46804
-1.72623 0.382683 1.15343
-1.53338 0.55557 1.53338
-1.80307 0.55557 1.20477
-1.72623 0.382683 1.15343
-1.91809 0.382683 0.794497
-1.80307 0.55557 1.20477
-2.00346 0.55557 0.829861
-1.53338 0.55557 1.53338
-1.80307 0.55557 1.20477
-1.62132 0.707107 1.62132
-1.90647 0.707107 1.27386
-1.80307 0.55557 1.20477
-2.00346 0.55557 0.829861
-1.90647 0.707107 1.27386
-2.11836 0.707107 0.877452
2.29289 0.707107 0
2.24884 0.707107 0.447321
2.44443 0.83147 0
2.39746 0.83147 0.476885
2.44443 0.83147 0
2.39746 0.83147 0.476885
2.61732 0.92388 0
2.56703 0.92388 0.510613
-2.17622 -0.92388 1.4541
-2.41809 -0.92388 1.0016
-2.03247 -0.83147 1.35805
-2.25836 -0.83147 0.935443
-2.03247 -0.83147 1.35805
-2.25836 -0.83147 0.935443
-1.90647 -0.707107 1.27386
-2.11836 -0.707107 0.877452
-1.90647 -0.707107 1.27386
-2.11836 -0.707107 0.877452
-1.80307 -0.55557 1.20477
-2.00346 -0.55557 0.829861
-1.53338 -0.55557 1.53338
-1.80307 -0.55557 1.20477
-1.46804 -0.382683 1.46804
-1.72623 -0.382683 1.15343
-1.80307 -0.55557 1.20477
-2.00346 -0.55557 0.829861
-1.72623 -0.382683 1.15343
-1.91809 -0.382683 0.794497
-2.12132 -1 2.12132
-2.49441 -1 1.66671
-1.98337 -0.980785 1.98337
-2.3322 -0.980785 1.55832
-2.49441 -1 1.66671
-2.77164 -1 1.14805
-2.3322 -0.980785 1.55832
-2.5914 -0.980785 1.07339
-1.98337 -0.980785 1.98337
-2.3322 -0.980785 1.55832
-1.85072 -0.92388 1.85072
-2.17622 -0.92388 1.4541
-2.3322 -0.980785 1.55832
-2.5914 -0.980785 1.07339
-2.17622 -0.92388 1.4541
-2.41809 -0.92388 1.0016
1.84776 1.22465e-16 0.765367
1.66294 1.22465e-16 1.11114
1.86551 0.19509 0.77272
1.67892 0.19509 1.12182
1.66294 1.22465e-16 1.11114
1.41421 1.22465e-16 1.41421
1.67892 0.19509 1.12182
1.4278 0.19509 1.4278
1.86551 0.19509 0.77272
1.67892 0.19509 1.12182
1.91809 0.382683 0.794497
1.72623 0.382683 1.15343
1.67892 0.19509 1.12182
1.4278 0.19509 1.4278
1.72623 0.382683 1.15343
1.46804 0.382683 1.46804
-2.62132 -0.707107 2.62132
-3.08235 -0.707107 2.05956
-2.51417 -0.83147 2.51417
-2.95635 -0.83147 1.97537
-3.08235 -0.707107 2.05956
-3.42492 -0.707107 1.41865
-2.95635 -0.83147 1.97537
-3.28492 -0.83147 1.36066
-2.51417 -0.83147 2.51417
-2.95635 -0.83147 1.97537
-2.39192 -0.92388 2.39192
-2.8126 -0.92388 1.87932
-2.95635 -0.83147 1.97537
-3.28492 -0.83147 1.36066
-2.8126 -0.92388 1.87932
-3.12519 -0.92388 1.2945
-2.41809 -0.92388 1.0016
-2.56703 -0.92388 0.510613
-2.25836 -0.83147 0.935443
-2.39746 -0.83147 0.476885
-2.56703 -0.92388 0.510613
-2.61732 -0.92388 3.20529e-16
-2.39746 -0.83147 0.476885
-2.44443 -0.83147 2.99356e-16
-2.25836 -0.83147 0.935443
-2.39746 -0.83147 0.476885
-2.11836 -0.707107 0.877452
-2.24884 -0.707107 0.447321
-2.39746 -0.83147 0.476885
-2.44443 -0.83147 2.99356e-16
-2.24884 -0.707107 0.447321
-2.29289 -0.707107 2.80798e-16
2.62132 -0.707107 -2.62132
3.08235 -0.707107 -2.05956
2.51417 -0.83147 -2.51417
2.95635 -0.83147 -1.97537
3.08235 -0.707107 -2.05956
3.42492 -0.707107 -1.41865
2.95635 -0.83147 -1.97537
3.28492 -0.83147 -1.36066
2.51417 -0.83147 -2.51417
2.95635 -0.83147 -1.97537
2.39192 -0.92388 -2.39192
2.8126 -0.92388 -1.87932
2.95635 -0.83147 -1.97537
3.28492 -0.83147 -1.36066
2.8126 -0.92388 -1.87932
3.12519 -0.92388 -1.2945
-1.62132 0.707107 1.62132
-1.90647 0.707107 1.27386
-1.72847 0.83147 1.72847
-2.03247 0.83147 1.35805
-1.90647 0.707107 1.27386
-2.11836 0.707107 0.877452
-2.03247 0.83147 1.35805
-2.25836 0.83147 0.935443
-1.72847 0.83147 1.72847
-2.03247 0.83147 1.35805
-1.85072 0.92388 1.85072
-2.17622 0.92388 1.4541
-2.03247 0.83147 1.35805
-2.25836 0.83147 0.935443
-2.17622 0.92388 1.4541
-2.41809 0.92388 1.0016
2.77164 -1 1.14805
2.49441 -1 1.66671
2.5914 -0.980785 1.07339
2.3322 -0.980785 1.55832
2.49441 -1 1.66671
2.12132 -1 2.12132
2.3322 -0.980785 1.55832
1.98337 -0.980785 1.98337
2.5914 -0.980785 1.07339
2.3322 -0.980785 1.55832
2.41809 -0.92388 1.0016
2.17622 -0.92388 1.4541
2.3322 -0.980785 1.55832
1.98337 -0.980785 1.98337
2.17622 -0.92388 1.4541
1.85072 -0.92388 1.85072
-2.11836 0.707107 0.877452
-2.24884 0.707107 0.447321
-2.25836 0.83147 0.935443
-2.39746 0.83147 0.476885
-2.24884 0.707107 0.447321
-2.29289 0.707107 2.80798e-16
-2.39746 0.83147 0.476885
-2.44443 0.83147 2.99356e-16
-2.25836 0.83147 0.935443
-2.39746 0.83147 0.476885
-2.41809 0.92388 1.0016
-2.56703 0.92388 0.510613
-2.39746 0.83147 0.476885
-2.44443 0.83147 2.99356e-16
-2.56703 0.92388 0.510613
-2.61732 0.92388 3.20529e-16
2.61732 0.92388 0
2.56703 0.92388 0.510613
2.80491 0.980785 0
2.75101 0.980785 0.547211
2.56703 0.92388 0.510613
2.41809 0.92388 1.0016
2.75101 0.980785 0.547211
2.5914 0.980785 1.07339
2.80491 0.980785 0
2.75101 0.980785 0.547211
3 1 0
2.94236 1 0.585271
2.75101 0.980785 0.547211
2.5914 0.980785 1.07339
2.94236 1 0.585271
2.77164 1 1.14805
1.85072 0.92388 -1.85072
2.17622 0.92388 -1.4541
1.98337 0.980785 -1.98337
2.3322 0.980785 -1.55832
2.17622 0.92388 -1.4541
2.41809 0.92388 -1.0016
2.3322 0.980785 -1.55832
2.5914 0.980785 -1.07339
1.98337 0.980785 -1.98337
2.3322 0.980785 -1.55832
2.12132 1 -2.12132
2.49441 1 -1.66671
2.3322 0.980785 -1.55832
2.5914 0.980785 -1.07339
2.49441 1 -1.66671
2.77164 1 -1.14805
2.07612 0.382683 0
2.03623 0.382683 0.405031
2.16853 0.55557 0
2.12686 0.55557 0.423059
2.03623 0.382683 0.405031
1.91809 0.382683 0.794497
2.12686 0.55557 0.423059
2.00346 0.55557 0.829861
2.16853 0.55557 0
2.12686 0.55557 0.423059
2.29289 0.707107 0
2.24884 0.707107 0.447321
2.12686 0.55557 0.423059
2.00346 0.55557 0.829861
2.24884 0.707107 0.447321
2.11836 0.707107 0.877452
1.62132 0.707107 -1.62132
1.90647 0.707107 -1.27386
1.72847 0.83147 -1.72847
2.03247 0.83147 -1.35805
1.90647 0.707107 -1.27386
2.11836 0.707107 -0.877452
2.03247 0.83147 -1.35805
2.25836 0.83147 -0.935443
1.72847 0.83147 -1.72847
2.03247 0.83147 -1.35805
1.85072 0.92388 -1.85072
2.17622 0.92388 -1.4541
2.03247 0.83147 -1.35805
2.25836 0.83147 -0.935443
2.17622 0.92388 -1.4541
2.41809 0.92388 -1.0016
2.5914 0.980785 1.07339
2.3322 0.980785 1.55832
2.77164 1 1.14805
2.49441 1 1.66671
1.91809 0.382683 0.794497
1.72623 0.382683 1.15343
2.00346 0.55557 0.829861
1.80307 0.55557 1.20477
1.72623 0.382683 1.15343
1.46804 0.382683 1.46804
1.80307 0.55557 1.20477
1.53338 0.55557 1.53338
2.00346 0.55557 0.829861
1.80307 0.55557 1.20477
2.11836 0.707107 0.877452
1.90647 0.707107 1.27386
1.80307 0.55557 1.20477
1.53338 0.55557 1.53338
1.90647 0.707107 1.27386
1.62132 0.707107 1.62132
2.12132 1 -2.12132
2.49441 1 -1.66671
2.25927 0.980785 -2.25927
2.65662 0.980785 -1.7751
2.49441 1 -1.66671
2.77164 1 -1.14805
2.65662 0.980785 -1.7751
2.95188 0.980785 -1.22271
2.25927 0.980785 -2.25927
2.65662 0.980785 -1.7751
2.39192 0.92388 -2.39192
2.8126 0.92388 -1.87932
2.65662 0.980785 -1.7751
2.95188 0.980785 -1.22271
2.8126 0.92388 -1.87932
3.12519 0.92388 -1.2945
2.29289 -0.707107 0
2.24884 -0.707107 0.447321
2.16853 -0.55557 0
2.12686 -0.55557 0.423059
2.24884 -0.707107 0.447321
2.11836 -0.707107 0.877452
2.12686 -0.55557 0.423059
2.00346 -0.55557 0.829861
2.16853 -0.55557 0
2.12686 -0.55557 0.423059
2.07612 -0.382683 0
2.03623 -0.382683 0.405031
2.12686 -0.55557 0.423059
2.00346 -0.55557 0.829861
2.03623 -0.382683 0.405031
1.91809 -0.382683 0.794497
3 1 0
2.94236 1 0.585271
3.19509 0.980785 0
3.1337 0.980785 0.623331
2.94236 1 0.585271
2.77164 1 1.14805
3.1337 0.980785 0.623331
2.95188 0.980785 1.22271
[...]
POINT_DATA 13408
SCALARS U double 1
LOOKUP_TABLE default
0.0038981 0.00469587 0.0031933 0.00404973 0.00469587 0.00528069 0.00404973 0.0043099 0.00254657 0.00292614 0.00312321 0.00363478 0.00345484 0.0030828 0.00350627 0.00380237 0.00288904 0.0034863 0.00312152 0.0029475 0.00538834 0.00645297 0.0056547 0.00707245 0.0056547 0.00707245 0.00568154 0.00716284 0.0031933 0.00404973 0.00314741 0.00333464 0.00531495 0.00481369 0.00528784 0.0047946 0.00481369 0.00559139 0.0047946 0.00560183 0.00528784 0.0047946 0.00518243 0.00475658 0.0047946 0.00560183 0.00475658 0.00557749 0.00559139 0.00647118 0.00560183 0.00646372 0.00647118 0.00716161 0.00646372 0.00707941 0.00560183 0.00646372 0.00557749 0.00639273 0.00646372 0.00707941 0.00639273 0.00691188 0.00438428 0.00523063 0.00485508 0.00564738 0.00485508 0.00564738 0.00536711 0.00601687 0.00564738 0.0057693 0.00601687 0.00628019 0.00536711 0.00601687 0.00591281 0.00639474 0.00591281 0.00639474 0.00645297 0.00676377 0.00557749 0.00639273 0.00548404 0.00625519 0.00639273 0.00691188 0.00625519 0.00662225 0.00548404 0.00625519 0.00532953 0.00600646 0.00625519 0.00662225 0.00600646 0.00625827 0.00518243 0.00475658 0.00474908 0.00474811 0.00475658 0.00557749 0.00474811 0.00548404 0.00474908 0.00474811 0.00462033 0.00457787 0.00474811 0.00548404 0.00457787 0.00532953 0.00646104 0.00671121 0.00602662 0.00643833 0.00602662 0.00643833 0.00552152 0.0060821 0.00416155 0.00451145 0.00430747 0.0049256 0.00430747 0.0049256 0.00451098 0.00521145 0.00451098 0.00521145 0.00463048 0.00540332 0.00498886 0.00463048 0.00519906 0.00476795 0.00463048 0.00540332 0.00476795 0.00549935 0.00378657 0.0035005 0.00400157 0.00389545 0.0035005 0.00368231 0.00389545 0.00406319 0.00400157 0.00389545 0.00413205 0.00416155 0.00389545 0.00406319 0.00416155 0.00451145 0.00688392 0.00668303 0.00677919 0.00665355 0.00668303 0.00672421 0.00665355 0.00676316 0.00677919 0.00665355 0.00671365 0.00662898 0.00665355 0.00676316 0.00662898 0.00680913 0.00309562 0.00272604 0.00334043 0.00264993 0.00272604 0.00254657 0.00264993 0.00283489 0.00334043 0.00264993 0.00331194 0.00275834 0.00264993 0.00283489 0.00275834 0.00312321 0.00451145 0.00524006 0.0049256 0.00565659 0.00524006 0.00524166 0.00565659 0.00577785 0.0049256 0.00565659 0.00521145 0.00597812 0.00565659 0.00577785 0.00597812 0.00630327 0.00361074 0.00315731 0.00391709 0.00319026 0.00315731 0.00264417 0.00319026 0.00283206 0.00391709 0.00319026 0.00345484 0.00326882 0.00319026 0.00283206 0.00326882 0.0030828 0.00462033 0.00457787 0.00462259 0.00436865 0.00457787 0.00532953 0.00436865 0.00507359 0.00462259 0.00436865 0.0038981 0.00429699 0.00436865 0.00507359 0.00429699 0.00469587 0.00524931 0.0053766 0.0057693 0.00571581 0.0053766 0.00578928 0.00571581 0.00597176 0.0057693 0.00571581 0.00628019 0.00612969 0.00571581 0.00597176 0.00612969 0.00608025 0.00532953 0.00600646 0.00507359 0.0055944 0.00600646 0.00625827 0.0055944 0.00578135 0.00507359 0.0055944 0.00469587 0.00498828 0.0055944 0.00578135 0.00498828 0.00528069 0.00552152 0.0060821 0.00504729 0.00562924 0.0060821 0.00655263 0.00562924 0.00606206 0.00504729 0.00562924 0.00461229 0.00517866 0.00562924 0.00606206 0.00517866 0.00553691 0.0042537 0.003852 0.00367612 0.00368603 0.003852 0.00469117 0.00368603 0.0043057 0.00367612 0.00368603 0.00343653 0.00344502 0.00368603 0.0043057 0.00344502 0.00400875 0.00694838 0.0071091 0.00676527 0.00692409 0.0071091 0.00671365 0.00692409 0.0067471 0.00676527 0.00692409 0.00646104 0.00671121 0.00692409 0.0067471 0.00671121 0.00684784 0.00478994 0.00440268 0.00451725 0.00411583 0.00440268 0.00535069 0.00411583 0.00504855 0.00451725 0.00411583 0.0042537 0.003852 0.00411583 0.00504855 0.003852 0.00469117 0.00606206 0.00604129 0.00553691 0.00565448 0.00671365 0.00662898 0.0067471 0.00664035 0.00662898 0.00680913 0.00664035 0.00676694 0.0067471 0.00664035 0.00684784 0.00669539 0.00664035 0.00676694 0.00669539 0.00654095 0.00343653 0.00344502 0.00350147 0.00326208 0.00344502 0.00400875 0.00326208 0.0037397 0.00350147 0.00326208 0.00288904 0.00318767 0.00326208 0.0037397 0.00318767 0.0034863 0.00645297 0.00676377 0.00676271 0.00706429 0.00676377 0.00687792 0.00706429 0.00692337 0.00676271 0.00706429 0.00707245 0.00722623 0.00706429 0.00692337 0.00722623 0.00694862 0.00461229 0.00517866 0.00419217 0.00481473 0.00517866 0.00553691 0.00481473 0.0050318 0.00419217 0.00481473 0.00376264 0.00454172 0.00481473 0.0050318 0.00454172 0.00449546 0.00400875 0.0048408 0.0037397 0.00444634 0.0048408 0.00461229 0.00444634 0.00419217 0.0037397 0.00444634 0.0034863 0.00395645 0.00444634 0.00419217 0.00395645 0.00376264 0.00521145 0.00597812 0.00540332 0.00619494 0.00597812 0.00630327 0.00619494 0.00673107 0.00540332 0.00619494 0.00549935 0.00634075 0.00619494 0.00673107 0.00634075 0.00701024 0.0033622 0.00425272 0.00300696 0.00385947 0.00687792 0.00656803 0.00692337 0.00659686 0.00656803 0.00626591 0.00659686 0.0064583 0.00692337 0.00659686 0.00694862 0.00664803 0.00659686 0.0064583 0.00664803 0.0066239 0.00707245 0.00722623 0.00711765 0.00731968 0.00722623 0.00694862 0.00731968 0.00694579 0.00711765 0.00731968 0.00716284 0.00731684 0.00731968 0.00694579 0.00731684 0.00688392 0.00568154 0.00642219 0.00565657 0.00639217 0.00642219 0.00716284 0.00639217 0.00704604 0.00565657 0.00639217 0.0056339 0.00635605 0.00639217 0.00704604 0.00635605 0.00694838 0.00575573 0.0044755 0.00570414 0.00435026 0.00385741 0.00339928 0.00378955 0.00339117 0.00378955 0.00339117 0.00386244 0.00333606 0.00386244 0.00333606 0.00397122 0.00323676 0.00397122 0.00323676 0.00404757 0.00309562 0.00333606 0.00292048 0.00323676 0.00281231 0.00292048 0.00211957 0.00281231 0.0023167 0.00323676 0.00281231 0.00309562 0.00272604 0.00281231 0.0023167 0.00272604 0.00254657 0.00613294 0.00512295 0.0057462 0.00526493 0.00512295 0.0038981 0.00526493 0.0035457 0.0057462 0.00526493 0.00559196 0.00517853 0.00526493 0.0035457 0.00517853 0.0031933 0.00684784 0.00669539 0.00682769 0.00665749 0.00669539 0.00654095 0.00665749 0.00624038 0.00682769 0.00665749 0.00655263 0.00641462 0.00665749 0.00624038 0.00641462 0.00590835 0.00570081 0.00479109 0.00560068 0.00463857 0.00459509 0.00545616 0.00456263 0.00543789 0.00545616 0.00560068 0.00543789 0.00554175 0.00456263 0.00543789 0.00452397 0.00543331 0.00543789 0.00554175 0.00543331 0.00557333 0.00210791 0.00284384 0.00230353 0.00299524 0.00230353 0.00299524 0.00250008 0.00317499 0.00716161 0.00710503 0.00707941 0.00704599 0.00707941 0.00704599 0.00691188 0.00696379 0.00528003 0.00481353 0.00526844 0.00483182 0.00481353 0.00568154 0.00483182 0.00565657 0.00483182 0.00565657 0.00478764 0.0056339 0.00312321 0.003379 0.00336835 0.00384596 0.003379 0.00363478 0.00384596 0.00400283 0.00336835 0.00384596 0.00368231 0.00429991 0.00384596 0.00400283 0.00429991 0.00437313 0.00654871 0.0070498 0.00649355 0.00733503 0.00640065 0.00649355 0.00631516 0.00642166 0.00649355 0.00733503 0.00642166 0.00746448 0.00513806 0.00478764 0.00509412 0.00465319 0.00478764 0.0056339 0.00465319 0.00555052 0.00509412 0.00465319 0.00478994 0.00440268 0.00465319 0.00555052 0.00440268 0.00535069 0.00555595 0.00552152 0.00517263 0.00504729 0.00517263 0.00504729 0.0048408 0.00461229 0.00519906 0.00476795 0.00531097 0.00479679 0.00476795 0.00549935 0.00479679 0.00556102 0.00531097 0.00479679 0.00531495 0.00481369 0.00479679 0.00556102 0.00481369 0.00559139 0.0034863 0.00395645 0.0032169 0.00337018 0.00395645 0.00376264 0.00337018 0.0033622 0.0032169 0.00337018 0.0029475 0.00278151 0.00337018 0.0033622 0.00278151 0.00300696 0.00422613 0.00488343 0.00468666 0.00536805 0.00488343 0.00485508 0.00536805 0.00536711 0.00630327 0.00655323 0.00673107 0.00689081 0.00655323 0.00626787 0.00689081 0.00643622 0.0056228 0.00518243 0.00547677 0.00474908 0.00740585 0.00547677 0.00709529 0.00538047 0.00547677 0.00474908 0.00538047 0.00462033 0.00266908 0.00252545 0.00221458 0.00218815 0.00221458 0.00218815 0.00196817 0.00199507 0.00436846 0.00486266 0.00429704 0.00468169 0.00429704 0.00468169 0.00432261 0.00459509 0.00275834 0.00312321 0.00310315 0.00336835 0.00332647 0.00310315 0.00378657 0.0035005 0.00310315 0.00336835 0.0035005 0.00368231 0.00294766 0.00432261 0.00288576 0.00438513 0.00432261 0.00459509 0.00438513 0.00456263 0.00538047 0.00462033 0.00480329 0.00462259 0.00480329 0.00462259 0.00512295 0.0038981 0.00196817 0.00199507 0.00193299 0.00197227 0.00211276 0.00193299 0.00202078 0.0020249 0.00193299 0.00197227 0.0020249 0.00210791 0.00292614 0.00360145 0.00328046 0.00385889 0.00360145 0.00288182 0.00385889 0.00342013 0.00328046 0.00385889 0.00363478 0.00419992 0.00385889 0.00342013 0.00419992 0.00400309 0.00550092 0.00514457 0.00539235 0.00474451 0.00363478 0.00419992 0.00400283 0.00459459 0.00400283 0.00459459 0.00437313 0.00498625 0.00459459 0.0046338 0.00498625 0.00525376 0.00218665 0.0027998 0.00256805 0.00310632 0.00283206 0.00256805 0.0030828 0.00311183 0.00256805 0.00310632 0.00311183 0.0034866 0.0055761 0.00455698 0.00612666 0.00507634 0.00455698 0.00378657 0.00507634 0.00400157 0.00612666 0.00507634 0.00638756 0.0053658 0.00507634 0.00400157 0.0053658 0.00413205 0.00250621 0.00255349 0.00251021 0.00260738 0.00255349 0.0028347 0.00260738 0.0027935 0.00260738 0.0027935 0.00281216 0.00281723 0.00251081 0.00281216 0.00259568 0.0031076 0.00281216 0.00281723 0.0031076 0.00298089 0.00259568 0.0031076 0.0027998 0.00342814 0.00694862 0.00664803 0.00694579 0.0066913 0.00664803 0.0066239 0.0066913 0.00670452 0.00694579 0.0066913 0.00688392 0.00668303 0.0066913 0.00670452 0.00668303 0.00672421 0.00288182 0.00430231 0.00342013 0.00448665 0.00342013 0.00448665 0.00400309 0.00467337 0.00448665 0.0046029 0.00467337 0.00476949 0.00756633 0.00779088 0.00713241 0.00731494 0.00713241 0.00731494 0.00658057 0.00679961 0.00553691 0.00565448 0.0050318 0.00529178 0.0050318 0.00529178 0.00449546 0.00494258 0.00529178 0.00519572 0.00494258 0.00513209 0.00625827 0.00649957 0.00578135 0.00613407 0.00578135 0.00613407 0.00528069 0.00572797 0.00613407 0.00587026 0.00572797 0.00563152 0.00606793 0.00619172 0.00587026 0.00600249 0.00619172 0.00722143 0.00600249 0.00680163 0.00587026 0.00600249 0.00563152 0.00577215 0.00600249 0.00680163 0.00577215 0.00622542 0.00300696 0.00385947 0.00273176 0.00337176 0.00337176 0.00311059 0.00291275 0.00294766 0.00489779 0.00491272 0.00451055 0.00441189 0.00386898 0.00451055 0.00340991 0.00416447 0.00291275 0.00294766 0.00265185 0.00288576 0.00249997 0.00265185 0.00250621 0.00255349 0.00265185 0.00288576 0.00255349 0.0028347 0.0056339 0.00635605 0.00555052 0.00634019 0.00635605 0.00694838 0.00634019 0.00676527 0.00555052 0.00634019 0.00535069 0.00621164 0.00634019 0.00676527 0.00621164 0.00646104 0.00642166 0.00746448 0.00632166 0.00743491 0.00621133 0.00632166 0.00606793 0.00619172 0.00632166 0.00743491 0.00619172 0.00722143 0.00608235 0.00574376 0.00628369 0.00604715 0.00628369 0.00604715 0.00638836 0.00656482 0.004682 0.0056547 0.0048419 0.00566812 0.0048419 0.00566812 0.00481353 0.00568154 0.00340991 0.00416447 0.00295503 0.0037675 0.00295503 0.0037675 0.00252545 0.00332134 0.00701024 0.00709816 0.00714575 0.00715118 0.00715118 0.00654054 0.00710503 0.0065005 0.00404757 0.00309562 0.00421904 0.00334043 0.00638756 0.0053658 0.00677326 0.00566451 0.0053658 0.00413205 0.00566451 0.00408544 0.00677326 0.00566451 0.00696121 0.00594839 0.00566451 0.00408544 0.00594839 0.00473943 0.0029289 0.00238691 0.00271249 0.00214537 0.00271249 0.00214537 0.00270999 0.00196694 0.00336813 0.00298766 0.00338769 0.00301426 0.00298766 0.00226757 0.00301426 0.00211276 0.00338769 0.00301426 0.00339928 0.00301127 0.00301426 0.00211276 0.00301127 0.00202078 0.00626787 0.00605741 0.00643622 0.00626741 0.00605741 0.00615335 0.00626741 0.00629741 0.00643622 0.00626741 0.00654394 0.0064301 0.00626741 0.00629741 0.0064301 0.00647025 0.00628019 0.00612969 0.00667245 0.00645077 0.00612969 0.00608025 0.00645077 0.00613819 0.00667245 0.00645077 0.00687792 0.00656803 0.00645077 0.00613819 0.00656803 0.00626591 0.00437313 0.00498625 0.0047732 0.00535451 0.0047732 0.00535451 0.00524166 0.00574254 0.00278151 0.00300696 0.00231227 0.00273176 0.00231227 0.00273176 0.00203392 0.00255255 0.0028347 0.00435852 0.0027935 0.00430035 0.00430035 0.00450495 0.00420471 0.00447959 0.00191429 0.00361878 0.00198507 0.00378436 0.00198507 0.00378436 0.00216208 0.00395482 0.00281723 0.00420471 0.00298089 0.00415114 0.00250008 0.00317499 0.00269933 0.00337964 0.00269933 0.00337964 0.00292614 0.00360145 0.00514856 0.00400422 0.00523021 0.00425295 0.00528069 0.00572797 0.00479529 0.0053142 0.00572797 0.00563152 0.0053142 0.00532743 0.00479529 0.0053142 0.0043099 0.00489779 0.0053142 0.00532743 0.00489779 0.00491272 0.00503821 0.00453979 0.00539578 0.00467556 0.00563152 0.00577215 0.00532743 0.00547786 0.00577215 0.00622542 0.00547786 0.00560291 0.00532743 0.00547786 0.00491272 0.0050923 0.00547786 0.00560291 0.0050923 0.00507142 0.00498221 0.00414953 0.00479917 0.00435747 0.00479917 0.00435747 0.00499789 0.00450004 0.00566967 0.00499611 0.00598938 0.00501117 0.00499611 0.00350627 0.00501117 0.00414164 0.00598938 0.00501117 0.00619421 0.00498221 0.00501117 0.00414164 0.00498221 0.00414953 0.00312152 0.00303451 0.00380942 0.00303423 0.00303451 0.0029475 0.00303423 0.00271376 0.00380942 0.00303423 0.00362369 0.00308002 0.00303423 0.00271376 0.00308002 0.00255355 0.0070498 0.00759992 0.00733503 0.00786477 0.00759992 0.0081733 0.00786477 0.00823691 0.00786477 0.00823691 0.00792654 0.00823298 0.00449546 0.00494258 0.00392348 0.00461972 0.00494258 0.00513209 0.00461972 0.00504078 0.00392348 0.00461972 0.00340601 0.00436846 0.00461972 0.00504078 0.00436846 0.00486266 0.00202078 0.0020249 0.00203278 0.00213393 0.0020249 0.00210791 0.00213393 0.00230353 0.00203278 0.00213393 0.00211957 0.0022255 0.00213393 0.00230353 0.0022255 0.00250008 0.00613315 0.00506244 0.00599317 0.00485249 0.00506244 0.0057462 0.00485249 0.00559196 0.00654394 0.0064301 0.00654054 0.00650462 0.0064301 0.00647025 0.00650462 0.00672967 0.00650462 0.00672967 0.00654871 0.0070498 0.00524166 0.00574254 0.00577785 0.00614956 0.00574254 0.00600972 0.00614956 0.00613626 0.00577785 0.00614956 0.00630327 0.00655323 0.00614956 0.00613626 0.00655323 0.00626787 0.0054739 0.00471152 0.00604494 0.00479889 0.00604494 0.00479889 0.00609574 0.0047139 0.00479889 0.00348987 0.0047139 0.00311271 0.00216208 0.00395482 0.00246103 0.0041219 0.00246103 0.0041219 0.00288182 0.00430231 0.00525376 0.00535167 0.00573287 0.0056931 0.00535167 0.00511428 0.0056931 0.00540935 0.00573287 0.0056931 0.00600972 0.00585175 0.0056931 0.00540935 0.00585175 0.0057125 0.00599317 0.00485249 0.0056808 0.00495805 0.0056808 0.00495805 0.0052967 0.00501139 0.00328666 0.00425421 0.00370822 0.0045158 0.00425421 0.00463749 0.0045158 0.00493282 0.0045158 0.00493282 0.00487283 0.00526686 0.00314741 0.00324102 0.00348987 0.00289346 0.00324102 0.00333464 0.00289346 0.00308354 0.00348987 0.00289346 0.00311271 0.00291636 0.00289346 0.00308354 0.00291636 0.00273591 0.00549935 0.00634075 0.00556102 0.00642831 0.00634075 0.00701024 0.00642831 0.00714575 0.00556102 0.00642831 0.00559139 0.00647118 0.00642831 0.00714575 0.00647118 0.00716161 0.00400309 0.00467337 0.0046338 0.00495585 0.0046338 0.00495585 0.00525376 0.00535167 0.0030828 0.00311183 0.00344258 0.00373335 0.00311183 0.0034866 0.00373335 0.00392363 0.00344258 0.00373335 0.00380237 0.0043365 0.00373335 0.00392363 0.0043365 0.00438428 0.00491272 0.0050923 0.00441189 0.00466846 0.0050923 0.00507142 0.00466846 0.00469559 0.00441189 0.00466846 0.00384234 0.00428059 0.00600972 0.00585175 0.00613626 0.00591926 0.00585175 0.0057125 0.00591926 0.00597055 0.00613626 0.00591926 0.00626787 0.00605741 0.00591926 0.00597055 0.00605741 0.00615335 0.0057125 0.00619554 0.00597055 0.00651772 0.00619554 0.00660199 0.00651772 0.00708131 0.00651772 0.00708131 0.0066695 0.00748088 0.00565487 0.00498886 0.00560533 0.00519906 0.00564631 0.00609897 0.00558132 0.00592908 0.00504078 0.00558132 0.00486266 0.00552681 0.00558132 0.00592908 0.00552681 0.00581818 0.00511428 0.00554026 0.00540935 0.00582068 0.00554026 0.00602631 0.00582068 0.00624998 0.00540935 0.00582068 0.0057125 0.00619554 0.00582068 0.00624998 0.00619554 0.00660199 0.00433704 0.00331194 0.00427838 0.00332647 0.00427838 0.00332647 0.00455698 0.00378657 0.00602631 0.00579111 0.00624998 0.00630348 0.00621164 0.00646104 0.00592261 0.00602662 0.00504855 0.00592261 0.00469117 0.00555595 0.00592261 0.00602662 0.00555595 0.00552152 0.00487283 0.00526686 0.00512051 0.00555161 0.00473754 0.00512051 0.00524931 0.0053766 0.00512051 0.00555161 0.0053766 0.00578928 0.00384234 0.00428059 0.00325706 0.00393593 0.00428059 0.0044674 0.00393593 0.00429438 0.00325706 0.00393593 0.00273693 0.00365531 0.00393593 0.00429438 0.00365531 0.00409557 0.00534593 0.00588684 0.00519572 0.0057401 0.00588684 0.00650164 0.0057401 0.00632697 0.00519572 0.0057401 0.00513209 0.00564631 0.0057401 0.00632697 0.00564631 0.00609897 0.00779088 0.00778315 0.00731494 0.00737982 0.00731494 0.00737982 0.00679961 0.00693903 0.00350627 0.00365432 0.00414164 0.00390485 0.00365432 0.00380237 0.00390485 0.00422613 0.00414164 0.00390485 0.00414953 0.00407547 0.00390485 0.00422613 0.00407547 0.00468666 0.00414953 0.00407547 0.00435747 0.00424399 0.00407547 0.00468666 0.00424399 0.00507964 0.00435747 0.00424399 0.00450004 0.00442698 0.00424399 0.00507964 0.00442698 0.00538834 0.00507964 0.0057478 0.00538834 0.00592066 0.0057478 0.00591281 0.00592066 0.00645297 0.00365531 0.00409557 0.00351761 0.00390259 0.00238691 0.00351761 0.00214537 0.00351624 0.00679961 0.00693903 0.00633912 0.00653411 0.00633912 0.00653411 0.00595854 0.00612496 0.00515868 0.00422971 0.00512435 0.00398626 0.00512435 0.00398626 0.00514856 0.00400422 0.00626591 0.00675469 0.0064583 0.00704207 0.00675469 0.00762493 0.00704207 0.00785024 0.00704207 0.00785024 0.00723881 0.00798516 0.00437031 0.00500137 0.0046029 0.00511659 0.00500137 0.00542836 0.00511659 0.00546262 0.0046029 0.00511659 0.00476949 0.00523259 0.00511659 0.00546262 0.00523259 0.00561044 0.00476949 0.00523259 0.00490135 0.00536486 0.00523259 0.00561044 0.00536486 0.00582411 0.00490135 0.00536486 0.00511428 0.00554026 0.00536486 0.00582411 0.00554026 0.00602631 0.00608025 0.00638836 0.00613819 0.00650391 0.00638836 0.00656482 0.00650391 0.00717906 0.00613819 0.00650391 0.00626591 0.00675469 0.00650391 0.00717906 0.00675469 0.00762493 0.00499789 0.00450004 0.00511487 0.00466802 0.00511487 0.00466802 0.00592021 0.00495732 0.00559196 0.00517853 0.00540602 0.00468088 0.00517853 0.0031933 0.00468088 0.00317035 0.00468088 0.00317035 0.00471152 0.00314741 0.00214537 0.00351624 0.00196694 0.003547 0.00351624 0.00378553 0.003547 0.00377231 0.00707669 0.0073306 0.00713853 0.00748259 0.00713853 0.00748259 0.0072007 0.00734388 0.0043153 0.00400331 0.00414961 0.00397685 0.00400331 0.00380637 0.00397685 0.00361658 0.00397685 0.00361658 0.00396542 0.00361074 0.00609574 0.0047139 0.00522728 0.00441449 0.0047139 0.00311271 0.00441449 0.00327558 0.00441449 0.00327558 0.00412814 0.00336813 0.00507142 0.00561054 0.00469559 0.00530103 0.00561054 0.00595854 0.00530103 0.00568057 0.00469559 0.00530103 0.0044674 0.00505016 0.00530103 0.00568057 0.00505016 0.00550092 0.00409557 0.00474466 0.00390259 0.00471175 0.00474466 0.00535422 0.00471175 0.00527792 0.00390259 0.00471175 0.00378553 0.00473267 0.00471175 0.00527792 0.00473267 0.00515868 0.0044674 0.00505016 0.00429438 0.00486318 0.00505016 0.00550092 0.00486318 0.00539235 0.00429438 0.00486318 0.00409557 0.00474466 0.00486318 0.00539235 0.00474466 0.00535422 0.00622542 0.00658057 0.00560291 0.00603052 0.00658057 0.00679961 0.00603052 0.00633912 0.00560291 0.00603052 0.00507142 0.00561054 0.00603052 0.00633912 0.00561054 0.00595854 0.00496498 0.00426827 0.00458732 0.00428462 0.00426827 0.00288904 0.00428462 0.00300528 0.00428462 0.00300528 0.00418845 0.00312152 0.00672421 0.00726132 0.00676316 0.00725387 0.00726132 0.00811922 0.00725387 0.00811733 0.00676316 0.00725387 0.00680913 0.007293