# vtk DataFile Version 3.0
#This file was generated by the deal.II library on 2023/3/1 at 3:09:31
ASCII
DATASET UNSTRUCTURED_GRID

FIELD FieldData 2
CYCLE 1 1 int
6
TIME 1 1 double
0.012
POINTS 2668 double
0 0 2
-1.41421 1.22465e-16 1.41421
1.40399e-16 0.707107 2.29289
-1.62132 0.707107 1.62132
1.40399e-16 0.707107 2.29289
-1.62132 0.707107 1.62132
0 1 3
-2.12132 1 2.12132
0 -1 3
-2.12132 -1 2.12132
1.40399e-16 -0.707107 2.29289
-1.62132 -0.707107 1.62132
1.40399e-16 -0.707107 2.29289
-1.62132 -0.707107 1.62132
0 0 2
-1.41421 1.22465e-16 1.41421
0 0 4
-2.82843 0 2.82843
2.26995e-16 -0.707107 3.70711
-2.62132 -0.707107 2.62132
2.26995e-16 -0.707107 3.70711
-2.62132 -0.707107 2.62132
0 -1 3
-2.12132 -1 2.12132
0 1 3
-2.12132 1 2.12132
2.26995e-16 0.707107 3.70711
-2.62132 0.707107 2.62132
2.26995e-16 0.707107 3.70711
-2.62132 0.707107 2.62132
0 0 4
-2.82843 0 2.82843
-2.62132 0.707107 -2.62132
-6.80984e-16 0.707107 -3.70711
-2.82843 0 -2.82843
0 0 -4
0 0 -2
1.41421 1.22465e-16 -1.41421
-4.21198e-16 0.707107 -2.29289
1.62132 0.707107 -1.62132
-4.21198e-16 0.707107 -2.29289
1.62132 0.707107 -1.62132
0 1 -3
2.12132 1 -2.12132
0 -1 -3
2.12132 -1 -2.12132
-4.21198e-16 -0.707107 -2.29289
1.62132 -0.707107 -1.62132
-4.21198e-16 -0.707107 -2.29289
1.62132 -0.707107 -1.62132
0 0 -2
1.41421 1.22465e-16 -1.41421
0 0 -4
2.82843 0 -2.82843
-6.80984e-16 -0.707107 -3.70711
2.62132 -0.707107 -2.62132
2.82843 0 -2.82843
4 0 0
2.62132 -0.707107 -2.62132
3.70711 -0.707107 0
-6.80984e-16 -0.707107 -3.70711
2.62132 -0.707107 -2.62132
0 -1 -3
2.12132 -1 -2.12132
0 1 -3
2.12132 1 -2.12132
-6.80984e-16 0.707107 -3.70711
2.62132 0.707107 -2.62132
-6.80984e-16 0.707107 -3.70711
2.62132 0.707107 -2.62132
0 0 -4
2.82843 0 -2.82843
-1.41421 1.22465e-16 1.41421
-1.84776 1.22465e-16 0.765367
-1.46804 0.382683 1.46804
-1.91809 0.382683 0.794497
-1.46804 0.382683 1.46804
-1.91809 0.382683 0.794497
-1.62132 0.707107 1.62132
-2.11836 0.707107 0.877452
-1.62132 0.707107 1.62132
-2.11836 0.707107 0.877452
-1.85072 0.92388 1.85072
-2.41809 0.92388 1.0016
-1.85072 0.92388 1.85072
-2.41809 0.92388 1.0016
-2.12132 1 2.12132
-2.77164 1 1.14805
-2.12132 -1 2.12132
-2.77164 -1 1.14805
-1.85072 -0.92388 1.85072
-2.41809 -0.92388 1.0016
-1.85072 -0.92388 1.85072
-2.41809 -0.92388 1.0016
-1.62132 -0.707107 1.62132
-2.11836 -0.707107 0.877452
-2.07612 -0.382683 2.54251e-16
-1.91809 -0.382683 -0.794497
-2 0 0
-1.84776 1.22465e-16 -0.765367
-1.62132 -0.707107 1.62132
-2.11836 -0.707107 0.877452
-1.46804 -0.382683 1.46804
-1.91809 -0.382683 0.794497
-2.11836 -0.707107 0.877452
-2.29289 -0.707107 2.80798e-16
-1.91809 -0.382683 0.794497
-2.07612 -0.382683 2.54251e-16
-1.46804 -0.382683 1.46804
-1.91809 -0.382683 0.794497
-1.41421 1.22465e-16 1.41421
-1.84776 1.22465e-16 0.765367
-1.91809 -0.382683 0.794497
-2.07612 -0.382683 2.54251e-16
-1.84776 1.22465e-16 0.765367
-2 0 0
-2.62132 -0.707107 2.62132
-3.42492 -0.707107 1.41865
-2.39192 -0.92388 2.39192
-3.12519 -0.92388 1.2945
-2.39192 -0.92388 2.39192
-3.12519 -0.92388 1.2945
-2.12132 -1 2.12132
-2.77164 -1 1.14805
1.62132 0.707107 -1.62132
2.11836 0.707107 -0.877452
1.85072 0.92388 -1.85072
2.41809 0.92388 -1.0016
1.85072 0.92388 -1.85072
2.41809 0.92388 -1.0016
2.12132 1 -2.12132
2.77164 1 -1.14805
2.12132 -1 -2.12132
2.77164 -1 -1.14805
1.85072 -0.92388 -1.85072
2.41809 -0.92388 -1.0016
2.77164 -1 -1.14805
3 -1 0
2.41809 -0.92388 -1.0016
2.61732 -0.92388 0
1.85072 -0.92388 -1.85072
2.41809 -0.92388 -1.0016
1.62132 -0.707107 -1.62132
2.11836 -0.707107 -0.877452
-2.12132 1 2.12132
-2.77164 1 1.14805
-2.39192 0.92388 2.39192
-3.12519 0.92388 1.2945
-2.39192 0.92388 2.39192
-3.12519 0.92388 1.2945
-2.62132 0.707107 2.62132
-3.42492 0.707107 1.41865
-2.12132 -1 -2.12132
-1.14805 -1 -2.77164
-1.85072 -0.92388 -1.85072
-1.0016 -0.92388 -2.41809
-1.14805 -1 -2.77164
0 -1 -3
-1.0016 -0.92388 -2.41809
-4.80793e-16 -0.92388 -2.61732
-1.85072 -0.92388 -1.85072
-1.0016 -0.92388 -2.41809
-1.62132 -0.707107 -1.62132
-0.877452 -0.707107 -2.11836
-1.0016 -0.92388 -2.41809
-4.80793e-16 -0.92388 -2.61732
-0.877452 -0.707107 -2.11836
-4.21198e-16 -0.707107 -2.29289
2.62132 -0.707107 -2.62132
3.42492 -0.707107 -1.41865
2.39192 -0.92388 -2.39192
3.12519 -0.92388 -1.2945
3.42492 -0.707107 -1.41865
3.70711 -0.707107 0
3.12519 -0.92388 -1.2945
3.38268 -0.92388 0
2.39192 -0.92388 -2.39192
3.12519 -0.92388 -1.2945
2.12132 -1 -2.12132
2.77164 -1 -1.14805
2.12132 1 -2.12132
2.77164 1 -1.14805
2.39192 0.92388 -2.39192
3.12519 0.92388 -1.2945
2.77164 1 -1.14805
3 1 0
3.12519 0.92388 -1.2945
3.38268 0.92388 0
2.39192 0.92388 -2.39192
3.12519 0.92388 -1.2945
2.62132 0.707107 -2.62132
3.42492 0.707107 -1.41865
2.12132 1 2.12132
1.14805 1 2.77164
2.39192 0.92388 2.39192
1.2945 0.92388 3.12519
1.14805 1 2.77164
0 1 3
1.2945 0.92388 3.12519
2.0713e-16 0.92388 3.38268
2.39192 0.92388 2.39192
1.2945 0.92388 3.12519
2.62132 0.707107 2.62132
1.41865 0.707107 3.42492
1.2945 0.92388 3.12519
2.0713e-16 0.92388 3.38268
1.41865 0.707107 3.42492
2.26995e-16 0.707107 3.70711
-3.69552 0 -1.53073
-2.82843 0 -2.82843
-3.62519 -0.382683 -1.5016
-2.7746 -0.382683 -2.7746
-2.62132 -0.707107 -2.62132
-1.41865 -0.707107 -3.42492
-2.39192 -0.92388 -2.39192
-1.2945 -0.92388 -3.12519
-1.41865 -0.707107 -3.42492
-6.80984e-16 -0.707107 -3.70711
-1.2945 -0.92388 -3.12519
-6.21389e-16 -0.92388 -3.38268
-2.39192 -0.92388 -2.39192
-1.2945 -0.92388 -3.12519
-2.12132 -1 -2.12132
-1.14805 -1 -2.77164
-1.2945 -0.92388 -3.12519
-6.21389e-16 -0.92388 -3.38268
-1.14805 -1 -2.77164
0 -1 -3
1.41421 1.22465e-16 -1.41421
1.84776 1.22465e-16 -0.765367
1.46804 0.382683 -1.46804
1.91809 0.382683 -0.794497
1.84776 1.22465e-16 -0.765367
2 0 0
1.91809 0.382683 -0.794497
2.07612 0.382683 0
1.46804 0.382683 -1.46804
1.91809 0.382683 -0.794497
1.62132 0.707107 -1.62132
2.11836 0.707107 -0.877452
1.62132 -0.707107 -1.62132
2.11836 -0.707107 -0.877452
1.46804 -0.382683 -1.46804
1.91809 -0.382683 -0.794497
1.46804 -0.382683 -1.46804
1.91809 -0.382683 -0.794497
1.41421 1.22465e-16 -1.41421
1.84776 1.22465e-16 -0.765367
1.91809 -0.382683 -0.794497
2.07612 -0.382683 0
1.84776 1.22465e-16 -0.765367
2 0 0
2.12132 -1 2.12132
1.14805 -1 2.77164
1.85072 -0.92388 1.85072
1.0016 -0.92388 2.41809
1.14805 -1 2.77164
0 -1 3
1.0016 -0.92388 2.41809
1.60264e-16 -0.92388 2.61732
1.0016 -0.92388 2.41809
1.60264e-16 -0.92388 2.61732
0.877452 -0.707107 2.11836
1.40399e-16 -0.707107 2.29289
-2.82843 0 2.82843
-3.69552 0 1.53073
-2.7746 -0.382683 2.7746
-3.62519 -0.382683 1.5016
-3.69552 0 1.53073
-4 0 0
-3.62519 -0.382683 1.5016
-3.92388 -0.382683 4.80537e-16
-2.7746 -0.382683 2.7746
-3.62519 -0.382683 1.5016
-2.62132 -0.707107 2.62132
-3.42492 -0.707107 1.41865
-2.12132 1 -2.12132
-1.14805 1 -2.77164
-2.39192 0.92388 -2.39192
-1.2945 0.92388 -3.12519
-1.14805 1 -2.77164
0 1 -3
-1.2945 0.92388 -3.12519
-6.21389e-16 0.92388 -3.38268
-2.39192 0.92388 -2.39192
-1.2945 0.92388 -3.12519
-2.62132 0.707107 -2.62132
-1.41865 0.707107 -3.42492
-1.2945 0.92388 -3.12519
-6.21389e-16 0.92388 -3.38268
-1.41865 0.707107 -3.42492
-6.80984e-16 0.707107 -3.70711
-3.42492 0.707107 -1.41865
-2.62132 0.707107 -2.62132
-3.62519 0.382683 -1.5016
-2.7746 0.382683 -2.7746
-3.92388 0.382683 4.80537e-16
-3.62519 0.382683 -1.5016
-4 0 0
-3.69552 0 -1.53073
-3.62519 0.382683 -1.5016
-2.7746 0.382683 -2.7746
-3.69552 0 -1.53073
-2.82843 0 -2.82843
-2.62132 0.707107 2.62132
-3.42492 0.707107 1.41865
-2.7746 0.382683 2.7746
-3.62519 0.382683 1.5016
-3.42492 0.707107 1.41865
-3.70711 0.707107 4.5399e-16
-3.62519 0.382683 1.5016
-3.92388 0.382683 4.80537e-16
-2.7746 0.382683 2.7746
-3.62519 0.382683 1.5016
-2.82843 0 2.82843
-3.69552 0 1.53073
-3.62519 0.382683 1.5016
-3.92388 0.382683 4.80537e-16
-3.69552 0 1.53073
-4 0 0
-1.62132 0.707107 -1.62132
-0.877452 0.707107 -2.11836
-1.85072 0.92388 -1.85072
-1.0016 0.92388 -2.41809
-0.877452 0.707107 -2.11836
-4.21198e-16 0.707107 -2.29289
-1.0016 0.92388 -2.41809
-4.80793e-16 0.92388 -2.61732
-1.85072 0.92388 -1.85072
-1.0016 0.92388 -2.41809
-2.12132 1 -2.12132
-1.14805 1 -2.77164
-1.0016 0.92388 -2.41809
-4.80793e-16 0.92388 -2.61732
-1.14805 1 -2.77164
0 1 -3
1.41421 1.22465e-16 1.41421
0.765367 1.22465e-16 1.84776
1.46804 0.382683 1.46804
0.794497 0.382683 1.91809
0.765367 1.22465e-16 1.84776
0 0 2
0.794497 0.382683 1.91809
1.27126e-16 0.382683 2.07612
1.46804 0.382683 1.46804
0.794497 0.382683 1.91809
1.62132 0.707107 1.62132
0.877452 0.707107 2.11836
0.794497 0.382683 1.91809
1.27126e-16 0.382683 2.07612
0.877452 0.707107 2.11836
1.40399e-16 0.707107 2.29289
1.62132 0.707107 1.62132
0.877452 0.707107 2.11836
1.85072 0.92388 1.85072
1.0016 0.92388 2.41809
0.877452 0.707107 2.11836
1.40399e-16 0.707107 2.29289
1.0016 0.92388 2.41809
1.60264e-16 0.92388 2.61732
1.85072 0.92388 1.85072
1.0016 0.92388 2.41809
2.12132 1 2.12132
1.14805 1 2.77164
1.0016 0.92388 2.41809
1.60264e-16 0.92388 2.61732
1.14805 1 2.77164
0 1 3
1.62132 -0.707107 1.62132
0.877452 -0.707107 2.11836
1.46804 -0.382683 1.46804
0.794497 -0.382683 1.91809
0.877452 -0.707107 2.11836
1.40399e-16 -0.707107 2.29289
0.794497 -0.382683 1.91809
1.27126e-16 -0.382683 2.07612
1.46804 -0.382683 1.46804
0.794497 -0.382683 1.91809
1.41421 1.22465e-16 1.41421
0.765367 1.22465e-16 1.84776
0.794497 -0.382683 1.91809
1.27126e-16 -0.382683 2.07612
0.765367 1.22465e-16 1.84776
0 0 2
4 0 0
3.69552 0 1.53073
3.92388 -0.382683 0
3.62519 -0.382683 1.5016
3.69552 0 1.53073
2.82843 0 2.82843
3.62519 -0.382683 1.5016
2.7746 -0.382683 2.7746
3.92388 -0.382683 0
3.62519 -0.382683 1.5016
3.70711 -0.707107 0
3.42492 -0.707107 1.41865
3.62519 -0.382683 1.5016
2.7746 -0.382683 2.7746
3.42492 -0.707107 1.41865
2.62132 -0.707107 2.62132
2.82843 0 2.82843
1.53073 0 3.69552
2.7746 -0.382683 2.7746
1.5016 -0.382683 3.62519
1.53073 0 3.69552
0 0 4
1.5016 -0.382683 3.62519
2.40268e-16 -0.382683 3.92388
2.7746 -0.382683 2.7746
1.5016 -0.382683 3.62519
2.62132 -0.707107 2.62132
1.41865 -0.707107 3.42492
1.5016 -0.382683 3.62519
2.40268e-16 -0.382683 3.92388
[...]
POINT_DATA 2668
SCALARS U double 1
LOOKUP_TABLE default
4.66662e-05 -1.44897e-05 8.46612e-05 -2.91746e-05 8.46612e-05 -2.91746e-05 3.64794e-05 -1.35179e-05 7.68245e-05 -2.66107e-05 4.93866e-05 -1.66387e-05 4.93866e-05 -1.66387e-05 4.66662e-05 -1.44897e-05 -0.000105892 3.65571e-05 -9.88095e-05 3.22057e-05 -9.88095e-05 3.22057e-05 7.68245e-05 -2.66107e-05 3.64794e-05 -1.35179e-05 6.18233e-05 -1.9705e-05 6.18233e-05 -1.9705e-05 -0.000105892 3.65571e-05 7.52011e-05 -1.44886e-05 -6.63622e-05 1.44908e-05 8.56448e-05 -2.79568e-05 7.32505e-05 -2.52354e-05 7.32505e-05 -2.52354e-05 3.54194e-05 -1.36689e-05 1.75695e-05 -3.74289e-06 5.40922e-05 -1.90227e-05 5.40922e-05 -1.90227e-05 8.56448e-05 -2.79568e-05 1.44908e-05 -9.87003e-06 1.68292e-05 5.59984e-07 -9.87003e-06 2.32429e-05 5.59984e-07 -1.53384e-05 1.68292e-05 5.59984e-07 1.75695e-05 -3.74289e-06 3.54194e-05 -1.36689e-05 -1.44886e-05 5.50594e-06 -1.44886e-05 5.50594e-06 1.44908e-05 -9.87003e-06 -1.44897e-05 -4.77609e-06 -2.18321e-05 8.1906e-06 -2.18321e-05 8.1906e-06 -2.91746e-05 8.70891e-06 -2.91746e-05 8.70891e-06 -2.13462e-05 1.40614e-05 -2.13462e-05 1.40614e-05 -1.35179e-05 5.18463e-06 -2.66107e-05 1.07936e-05 -2.16247e-05 9.35752e-06 -2.16247e-05 9.35752e-06 -1.66387e-05 6.15943e-06 0.00105287 0.00233118 0.00102339 0.00223871 -1.66387e-05 6.15943e-06 -1.55642e-05 -1.31699e-06 6.15943e-06 0.00077904 -1.31699e-06 0.00105287 -1.55642e-05 -1.31699e-06 -1.44897e-05 -4.77609e-06 -1.31699e-06 0.00105287 -4.77609e-06 0.00102339 3.22057e-05 8.80023e-06 2.7975e-06 1.51384e-06 2.7975e-06 1.51384e-06 -2.66107e-05 1.07936e-05 -2.52354e-05 9.12166e-06 -1.94522e-05 3.67031e-06 -1.94522e-05 3.67031e-06 -1.36689e-05 8.68862e-06 -3.74289e-06 -5.85835e-06 -1.13828e-05 6.06923e-06 -5.85835e-06 5.07295e-05 6.06923e-06 0.000208017 -1.13828e-05 6.06923e-06 -1.90227e-05 7.11604e-06 -1.35179e-05 5.18463e-06 -1.66114e-05 1.39282e-05 -1.66114e-05 1.39282e-05 -1.9705e-05 -1.08191e-05 0.000467468 -0.000121696 0.000473772 -0.000114194 -0.000121696 1.75695e-05 -0.000114194 3.58308e-05 0.000473772 -0.000114194 0.000293961 -0.000155948 -0.000114194 3.58308e-05 -0.000155948 5.40922e-05 5.59984e-07 -7.38919e-06 -1.59145e-06 -3.91309e-05 -7.38919e-06 -1.53384e-05 -3.91309e-05 0.000166477 -1.59145e-06 -3.91309e-05 -3.74289e-06 -5.85835e-06 -1.36689e-05 8.68862e-06 -4.08148e-06 8.9602e-06 8.68862e-06 0.000407607 8.9602e-06 -7.7836e-06 -4.08148e-06 8.9602e-06 5.50594e-06 -2.66305e-06 0.000292434 -0.000159053 0.00033179 -6.15157e-05 -0.000159053 3.64794e-05 -6.15157e-05 4.91514e-05 0.00033179 -6.15157e-05 0.000237046 -0.000182998 -6.15157e-05 4.91514e-05 -0.000182998 6.18233e-05 -8.27204e-06 -6.63622e-05 0.00014213 0.000255058 0.000464893 -0.000117831 0.000437455 -0.000113507 -0.000117831 1.68292e-05 -0.000113507 1.71993e-05 0.000437455 -0.000113507 0.000467468 -0.000121696 -0.000113507 1.71993e-05 -0.000121696 1.75695e-05 -2.79568e-05 1.14757e-05 -2.65961e-05 -6.08268e-07 1.14757e-05 0.00125036 -6.08268e-07 0.00121214 -2.65961e-05 -6.08268e-07 -2.52354e-05 9.12166e-06 -1.90227e-05 7.11604e-06 -2.34897e-05 -5.65143e-07 -2.34897e-05 -5.65143e-07 -2.79568e-05 1.14757e-05 -5.65143e-07 0.000779893 1.14757e-05 0.00125036 0.000141719 -0.000225709 0.000305202 6.26083e-06 -0.000225709 7.68245e-05 6.26083e-06 6.31056e-05 6.26083e-06 6.31056e-05 -0.000161112 4.93866e-05 3.65571e-05 -7.77052e-06 3.43814e-05 -1.96636e-05 -7.77052e-06 -5.08696e-06 -1.96636e-05 4.57789e-05 3.43814e-05 -1.96636e-05 3.22057e-05 8.80023e-06 0.000498096 -0.000129597 0.000385309 -0.00011341 -0.000129597 3.54194e-05 -0.00011341 1.04654e-05 0.000385309 -0.00011341 7.52011e-05 3.03562e-05 -0.00011341 1.04654e-05 3.03562e-05 -1.44886e-05 0.00032828 7.52011e-05 -5.56114e-05 4.41947e-06 -5.14736e-06 -5.56114e-05 -5.08696e-06 -8.27204e-06 -5.56114e-05 4.41947e-06 -8.27204e-06 -6.63622e-05 -1.9705e-05 -1.08191e-05 8.42608e-06 -1.03622e-06 -1.08191e-05 6.79907e-05 -1.03622e-06 -5.14736e-06 8.42608e-06 -1.03622e-06 3.65571e-05 -7.77052e-06 -1.03622e-06 -5.14736e-06 -7.77052e-06 -5.08696e-06 0.000229067 -0.000187177 0.000236209 -4.41452e-05 -0.000187177 7.32505e-05 -4.41452e-05 5.43349e-05 0.000236209 -4.41452e-05 0.000498096 -0.000129597 -4.41452e-05 5.43349e-05 -0.000129597 3.54194e-05 0.00037409 -0.000129338 0.000297165 -0.000163689 -0.000129338 4.66662e-05 -0.000163689 6.56637e-05 0.000297165 -0.000163689 0.000217892 -0.000192734 -0.000163689 6.56637e-05 -0.000192734 8.46612e-05 0.000217892 -0.000192734 0.000265172 -0.000183346 -0.000192734 8.46612e-05 -0.000183346 6.05703e-05 0.000265172 -0.000183346 0.000292434 -0.000159053 -0.000183346 6.05703e-05 -0.000159053 3.64794e-05 0.000165937 -0.000161112 0.000285836 -0.000192879 -0.000161112 4.93866e-05 -0.000192879 4.80264e-05 0.000285836 -0.000192879 0.00037409 -0.000129338 -0.000192879 4.80264e-05 -0.000129338 4.66662e-05 2.32429e-05 0.000224816 3.95226e-06 0.000209767 0.000224816 0.000690051 0.000209767 0.000304452 3.95226e-06 0.000209767 -1.53384e-05 0.000211797 0.000209767 0.000304452 0.000211797 0.000669392 0.000690051 8.80151e-05 0.000304452 0.000185253 8.80151e-05 -0.000105892 0.000185253 -0.000102351 0.000304452 0.000185253 0.000669392 8.36122e-05 0.000185253 -0.000102351 8.36122e-05 -9.88095e-05 0.000669392 8.36122e-05 0.000538286 -0.000102568 8.36122e-05 -9.88095e-05 -0.000102568 -1.09925e-05 0.000538286 -0.000102568 0.000141719 -0.000225709 -0.000102568 -1.09925e-05 -0.000225709 7.68245e-05 0.000237046 -0.000182998 0.000583631 -8.10862e-05 -0.000182998 6.18233e-05 -8.10862e-05 -2.20344e-05 0.000583631 -8.10862e-05 0.000690051 8.80151e-05 -8.10862e-05 -2.20344e-05 8.80151e-05 -0.000105892 0.000231492 -0.000190185 0.000227112 -0.000192348 -0.000190185 8.56448e-05 -0.000192348 7.94476e-05 0.000227112 -0.000192348 0.000229067 -0.000187177 -0.000192348 7.94476e-05 -0.000187177 7.32505e-05 0.000293961 -0.000155948 0.000276377 -0.000178671 -0.000155948 5.40922e-05 -0.000178671 6.98685e-05 0.000276377 -0.000178671 0.000231492 -0.000190185 -0.000178671 6.98685e-05 -0.000190185 8.56448e-05 -6.63622e-05 -2.59357e-05 0.000255058 -5.45776e-05 -2.59357e-05 1.44908e-05 -5.45776e-05 1.566e-05 0.000255058 -5.45776e-05 0.000464893 -0.000117831 -5.45776e-05 1.566e-05 -0.000117831 1.68292e-05 5.50594e-06 -2.66305e-06 -2.18204e-06 6.13487e-06 -2.66305e-06 -8.98625e-06 6.13487e-06 -1.98449e-08 -2.18204e-06 6.13487e-06 -9.87003e-06 6.68643e-06 6.13487e-06 -1.98449e-08 6.68643e-06 2.32429e-05 8.70891e-06 -9.61885e-06 1.13852e-05 -5.26263e-05 1.13852e-05 -5.26263e-05 1.40614e-05 -6.49233e-05 -5.26263e-05 0.000504902 -6.49233e-05 0.000476068 1.40614e-05 -6.49233e-05 9.62302e-06 -1.82679e-05 9.62302e-06 -1.82679e-05 5.18463e-06 -1.25004e-05 1.07936e-05 -1.55059e-05 1.00755e-05 -1.23968e-05 1.00755e-05 -1.23968e-05 9.35752e-06 -1.71505e-05 0.000711809 0.00150781 0.000504902 0.00134671 0.00150781 0.00229965 0.00134671 0.00203153 0.000504902 0.00134671 0.000476068 0.00134178 0.000476068 0.00134178 0.000540512 0.00137938 0.00137938 0.000849531 0.00132808 0.000645324 0.000280156 0.00115811 0.000266117 0.001159 0.00115811 0.000467468 0.001159 0.00047062 0.000266117 0.001159 0.000363712 0.00113837 0.001159 0.00047062 0.00113837 0.000473772 0.00141498 0.000363712 0.00156693 0.000799623 0.000737343 0.00156693 0.00077904 0.00172621 0.000482982 0.000354118 0.000546809 0.000300698 0.000760693 0.00157989 0.000643858 0.00123522 0.000643858 0.00123522 0.000519283 0.00145716 0.000519283 0.00145716 0.000474568 0.00149777 0.000208017 0.00157038 0.000399407 0.00188954 0.000399407 0.00188954 0.000675889 0.0015724 0.00188954 0.00197617 0.0015724 0.00229286 8.1906e-06 -1.13834e-05 8.44976e-06 2.38776e-06 8.44976e-06 2.38776e-06 8.70891e-06 -9.61885e-06 2.38776e-06 0.000748461 -9.61885e-06 0.000711809 9.35752e-06 -1.71505e-05 7.75847e-06 1.14978e-05 7.75847e-06 1.14978e-05 6.15943e-06 0.000392599 1.14978e-05 0.000737343 0.000392599 0.00077904 0.00073587 0.0012864 0.000748461 0.00152101 0.0012864 0.0021887 0.00152101 0.00227508 0.000748461 0.00152101 0.000711809 0.00150781 0.00152101 0.00227508 0.00150781 0.00229965 0.00155426 0.000141719 0.00153761 0.000223461 0.00153761 0.000223461 0.00151819 0.000305202 5.07295e-05 0.00140869 0.000129373 0.00115573 0.000129373 0.00115573 0.000208017 0.00157038 0.00121214 0.00156246 0.000980944 0.00177736 0.00156246 0.00154099 0.00177736 0.00191425 0.000980944 0.00177736 0.000760693 0.00157989 0.00177736 0.00191425 0.00157989 0.00226703 -1.57495e-05 0.00136885 0.000366978 0.00110521 0.00110521 0.000689652 0.000482982 0.000354118 0.000354118 0.00116638 0.000300698 0.00114731 0.00116638 0.000437455 0.00114731 0.000452462 0.000300698 0.00114731 0.000280156 0.00115811 0.00114731 0.000452462 0.00115811 0.000467468 1.51384e-06 -2.65325e-05 6.15371e-06 -1.13495e-05 6.15371e-06 -1.13495e-05 1.07936e-05 -1.55059e-05 9.12166e-06 -6.6473e-06 6.39599e-06 -9.53656e-06 -6.6473e-06 0.000760693 -9.53656e-06 0.000643858 6.39599e-06 -9.53656e-06 3.67031e-06 -1.17773e-05 0.00132808 0.000645324 0.00125463 0.000633511 0.00125463 0.000633511 0.00129679 0.000653352 -4.77609e-06 0.000509309 1.70725e-06 5.28522e-05 0.000509309 0.00102339 5.28522e-05 0.00086594 1.70725e-06 5.28522e-05 8.1906e-06 -1.13834e-05 5.28522e-05 0.00086594 -1.13834e-05 0.00073587 0.000675889 0.0015724 0.00071212 0.00119607 0.00071212 0.00119607 0.000779893 0.00156899 0.000407607 0.000879782 0.000199912 0.00049379 0.000199912 0.00049379 -7.7836e-06 0.000997101 0.00102339 0.00163105 0.00086594 0.00135199 0.00163105 0.00223871 0.00135199 0.00215076 0.00086594 0.00135199 0.00073587 0.0012864 8.80023e-06 -3.63993e-05 5.15703e-06 -5.51439e-05 -3.63993e-05 -1.57495e-05 -5.51439e-05 0.000366978 5.15703e-06 -5.51439e-05 1.51384e-06 -2.65325e-05 -5.51439e-05 0.000366978 -2.65325e-05 0.000528051 3.67031e-06 -1.17773e-05 6.17947e-06 8.29786e-06 -1.17773e-05 0.000519283 8.29786e-06 0.000474568 6.17947e-06 8.29786e-06 8.68862e-06 0.000208148 8.29786e-06 0.000474568 0.000208148 0.000407607 0.00226703 0.00181806 0.00224975 0.0018697 0.00181806 0.000217892 0.0018697 0.000241532 0.00224975 0.0018697 0.00222838 0.0018615 0.0018697 0.000241532 0.0018615 0.000265172 6.06923e-06 0.000107043 6.59264e-06 -2.59301e-05 0.000107043 0.000208017 -2.59301e-05 0.000399407 6.59264e-06 -2.59301e-05 7.11604e-06 -3.98074e-06 -2.59301e-05 0.000399407 -3.98074e-06 0.000675889 5.18463e-06 -1.25004e-05 9.55643e-06 -2.19828e-05 -1.25004e-05 0.000562578 -2.19828e-05 0.000615614 9.55643e-06 -2.19828e-05 1.39282e-05 -5.08836e-05 -2.19828e-05 0.000615614 -5.08836e-05 0.00036319 0.000779893 0.00156899 0.00101513 0.00175229 0.00156899 0.0022566 0.00175229 0.00188964 0.00101513 0.00175229 0.00125036 0.0015419 0.00175229 0.00188964 0.0015419 0.00151096 0.000645324 0.00106194 0.000633511 0.0011513 0.00106194 0.000498096 0.0011513 0.000441702 0.000633511 0.0011513 0.000653352 0.00100144 0.0011513 0.000441702 0.00100144 0.000385309 0.00036319 0.00129679 3.90733e-05 0.00129297 -6.08268e-07 0.000605768 4.2567e-06 2.34804e-05 0.000605768 0.00121214 2.34804e-05 0.000980944 4.2567e-06 2.34804e-05 9.12166e-06 -6.6473e-06 2.34804e-05 0.000980944 -6.6473e-06 0.000760693 7.11604e-06 -3.98074e-06 3.27545e-06 3.27654e-05 -3.98074e-06 0.000675889 3.27654e-05 0.00071212 3.27545e-06 3.27654e-05 -5.65143e-07 0.000389664 3.27654e-05 0.00071212 0.000389664 0.000779893 0.00154176 0.000292434 0.00155159 0.000312112 0.00155159 0.000312112 0.00112122 0.00033179 0.00077904 0.00172621 0.000915953 0.00190939 0.00172621 0.00155966 0.00190939 0.00197357 0.000915953 0.00190939 0.00105287 0.00169202 0.00190939 0.00197357 0.00169202 0.00233118 0.00222838 0.0018615 0.00192357 0.00170052 0.0018615 0.000265172 0.00170052 0.000278803 0.00192357 0.00170052 0.00139795 0.00154176 0.00170052 0.000278803 0.00154176 0.000292434 0.00154367 0.000236209 0.00141338 0.000367152 0.00141338 0.000367152 0.00106194 0.000498096 0.00113837 0.000473772 0.00141317 0.000383866 0.00141317 0.000383866 0.00152722 0.000293961 0.00131968 0.00151819 0.00197617 0.00158975 0.00151819 0.000305202 0.00158975 0.000559795 0.00197617 0.00158975 0.00229286 0.00182299 0.00158975 0.000559795 0.00182299 0.000165937 0.00125036 0.0015419 0.00123125 0.00151748 0.0015419 0.00151096 0.00151748 0.00147892 0.00123125 0.00151748 0.00121214 0.00156246 0.00151748 0.00147892 0.00156246 0.00154099 0.00077802 0.000464893 0.0014206 0.000451174 0.0014206 0.000451174 0.00116638 0.000437455 0.00151096 0.00149437 0.00147892 0.00146579 0.00149437 0.00037409 0.00146579 0.000335628 0.00147892 0.00146579 0.00154099 0.00147457 0.00146579 0.000335628 0.00147457 0.000297165 1.39282e-05 -5.08836e-05 1.55457e-06 -9.92712e-07 -5.08836e-05 0.00036319 -9.92712e-07 3.90733e-05 1.55457e-06 -9.92712e-07 -1.08191e-05 2.85858e-05 -9.92712e-07 3.90733e-05 2.85858e-05 6.79907e-05 0.00154099 0.00147457 0.00191425 0.00164246 0.00147457 0.000297165 0.00164246 0.000257529 0.00191425 0.00164246 0.00226703 0.00181806 0.00164246 0.000257529 0.00181806 0.000217892 0.00229286 0.00182299 0.00223488 0.00187178 0.00182299 0.000165937 0.00187178 0.000225886 0.00223488 0.00187178 0.0022566 0.00184171 0.00187178 0.000225886 0.00184171 0.000285836 0.0022566 0.00184171 0.00188964 0.001669 0.00184171 0.000285836 0.001669 0.000329963 0.00188964 0.001669 0.00151096 0.00149437 0.001669 0.000329963 0.00149437 0.00037409 0.000549552 0.00112122 0.000384912 0.000934464 0.00112122 0.00033179 0.000934464 0.000284418 0.000384912 0.000934464 0.000166207 0.000780749 0.000934464 0.000284418 0.000780749 0.000237046 0.00223871 0.00175191 0.00215076 0.00178222 0.00175191 0.000231492 0.00178222 0.000229302 0.00215076 0.00178222 0.0021887 0.0017916 0.00178222 0.000229302 0.0017916 0.000227112 0.0021887 0.0017916 0.00227508 0.00182198 0.0017916 0.000227112 0.00182198 0.000228089 0.00227508 0.00182198 0.00229965 0.00183603 0.00182198 0.000228089 0.00183603 0.000229067 0.00155966 0.00152722 0.00197357 0.00169228 0.00152722 0.000293961 0.00169228 0.000285169 0.00197357 0.00169228 0.00233118 0.00179938 0.00169228 0.000285169 0.00179938 0.000276377 0.00233118 0.00179938 0.00228494 0.0017886 0.00179938 0.000276377 0.0017886 0.000253935 0.00228494 0.0017886 0.00223871 0.00175191 0.0017886 0.000253935 0.00175191 0.000231492 0.00229965 0.00183603 0.00203153 0.00169548 0.00183603 0.000229067 0.00169548 0.000232638 0.00203153 0.00169548 0.00152543 0.00154367 0.00169548 0.000232638 0.00154367 0.000236209 -3.91309e-05 6.3673e-05 -2.24946e-05 3.53684e-05 6.3673e-05 0.000166477 3.53684e-05 0.000132429 -2.24946e-05 3.53684e-05 -5.85835e-06 2.24356e-05 3.53684e-05 0.000132429 2.24356e-05 5.07295e-05 8.9602e-06 5.88299e-07 3.14858e-06 -1.18913e-05 5.88299e-07 -7.7836e-06 -1.18913e-05 -9.85302e-06 3.14858e-06 -1.18913e-05 -2.66305e-06 -5.82465e-06 -1.18913e-05 -9.85302e-06 -5.82465e-06 -8.98625e-06 0.000653352 0.00100144 0.000255262 0.00110952 0.00100144 0.000385309 0.00110952 0.000230255 0.000255262 0.00110952 0.00032828 0.000201741 0.00110952 0.000230255 0.000201741 7.52011e-05 -5.08696e-06 -6.6795e-06 2.0346e-05 2.54631e-05 -6.6795e-06 -8.27204e-06 2.54631e-05 6.69292e-05 2.0346e-05 2.54631e-05 4.57789e-05 0.000181606 2.54631e-05 6.69292e-05 0.000181606 0.00014213 0.00014213 0.000198594 -0.000182571 0.000896235 0.000198594 0.000255058 0.000896235 0.000359976 -0.000182571 0.000896235 -6.79136e-05 0.00077802 0.000896235 0.000359976 0.00077802 0.000464893 0.000305202 0.000155731 0.000559795 -0.000351301 0.000155731 6.26083e-06 -0.000351301 -7.74258e-05 0.000559795 -0.000351301 0.000165937 2.41232e-06 -0.000351301 -7.74258e-05 2.41232e-06 -0.000161112 -8.98625e-06 0.000313848 -4.50305e-06 7.32788e-05 0.000313848 0.000166207 7.32788e-05 -9.2276e-05 -4.50305e-06 7.32788e-05 -1.98449e-08 -1.37519e-05 7.32788e-05 -9.2276e-05 -1.37519e-05 -0.000302372 0.000166207 0.000780749 -9.2276e-05 0.000706513 0.000780749 0.000237046 0.000706513 0.000410338 -9.2276e-05 0.000706513 -0.000302372 0.000643376 0.000706513 0.000410338 0.000643376 0.000583631 -1.98449e-08 -1.37519e-05 1.16115e-05 7.65676e-05 -1.37519e-05 -0.000302372 7.65676e-05 -0.000200141 1.16115e-05 7.65676e-05 2.32429e-05 0.00012403 7.65676e-05 -0.000200141 0.00012403 0.000224816 -0.000302372 0.000643376 -0.000200141 0.000975522 0.000643376 0.000583631 0.000975522 0.000636841 -0.000200141 0.000975522 0.000224816 0.000457434 0.000975522 0.000636841 0.000457434 0.000690051 -1.53384e-05 9.82295e-05 7.55693e-05 0.000220978 9.82295e-05 0.000211797 0.000220978 7.11296e-05 7.55693e-05 0.000220978 0.000166477 0.000504937 0.000220978 7.11296e-05 0.000504937 0.000292139 0.000211797 0.000440595 7.11296e-05 0.00109487 0.000440595 0.000669392 0.00109487 0.000603839 7.11296e-05 0.00109487 0.000292139 0.000914633 0.00109487 0.000603839 0.000914633 0.000538286 0.000292139 0.000914633 0.00103724 0.00126637 0.000914633 0.000538286 0.00126637 0.000340003 0.00103724 0.00126637 0.00153959 0.00155426 0.00126637 0.000340003 0.00155426 0.000141719 -1.96636e-05 1.30577e-05 -5.43168e-06 -9.54478e-06 1.30577e-05 4.57789e-05 -9.54478e-06 -1.05277e-05 -5.43168e-06 -9.54478e-06 8.80023e-06 -3.63993e-05 -9.54478e-06 -1.05277e-05 -3.63993e-05 -1.57495e-05 6.79907e-05 0.000280126 3.14217e-05 5.05785e-05 0.000280126 0.00032828 5.05785e-05 0.000136335 3.14217e-05 5.05785e-05 -5.14736e-06 -3.03794e-05 5.05785e-05 0.000136335 -3.03794e-05 -5.56114e-05 0.000509598 0.00094459 0.000503296 0.000981763 0.00094459 0.000785085 0.000981763 0.000955126 0.000785085 0.00104311 0.000955126 0.00111068 0.00104311 0.000280156 0.00111068 0.000273136 0.000955126 0.00111068 0.00112751 0.0012022 0.00111068 0.000273136 0.0012022 0.000266117 0.00102898 0.00112751 0.00106099 0.00123283 0.000525639 0.00106099 0.000587379 0.00109662 -9.61885e-06 0.000351095 -3.11226e-05 0.00025229 0.000351095 0.000711809 0.00025229 0.000608356 -3.11226e-05 0.00025229 -5.26263e-05 0.000226138 0.00025229 0.000608356 0.000226138 0.000504902 0.00134671 0.00168912 0.00134425 0.00175644 0.00168912 0.00203153 0.00175644 0.00177848 0.00134425 0.00175644 0.00134178 0.00162821 0.00175644 0.00177848 0.00162821 0.00152543 -6.49233e-05 0.000205573 -4.15956e-05 0.000130255 0.000205573 0.000476068 0.000130255 0.00050829 -4.15956e-05 0.000130255 -1.82679e-05 8.24167e-05 0.000130255 0.00050829 8.24167e-05 0.000540512 -1.55059e-05 8.06675e-05 -1.39513e-05 7.79363e-05 -1.39513e-05 7.79363e-05 -1.23968e-05 8.52399e-05 7.79363e-05 0.000503296 8.52399e-05 0.000503391 -1.23968e-05 8.52399e-05 -1.47736e-05 0.000101651 -1.47736e-05 0.000101651 -1.71505e-05 0.000118847 0.000101651 0.000525639 0.000118847 0.000587379 0.00134178 0.00162821 0.00136058 0.0013154 0.00162821 0.00152543 0.0013154 0.00129404 0.00136058 0.0013154 0.00137938 0.00111446 0.0013154 0.00129404 0.00111446 0.000849531 0.00112751 0.0012022 0.00123283 0.00117103 0.0012022 0.000266117 0.00117103 0.000314914 0.00123283 0.00117103 0.00141498 0.000889344 0.00117103 0.000314914 0.000889344 0.000363712 0.00156693 0.00118327 0.00164657 0.00143736 0.00118327 0.000799623 0.00143736 0.00126233 0.00164657 0.00143736 0.00172621 0.00164294 0.00143736 0.00126233 0.00164294 0.00155966 -1.82679e-05 8.24167e-05 -1.53842e-05 0.000131186 8.24167e-05 0.000540512 0.000131186 0.000542245 -1.53842e-05 0.000131186 -1.25004e-05 0.000275039 0.000131186 0.000542245 0.000275039 0.000562578 0.000540512 0.000959947 0.000542245 0.000952421 0.000959947 0.00137938 0.000952421 0.00135373 0.000952421 0.00135373 0.000901637 0.00132808 0.00157989 0.00192346 0.00140755 0.00199308 0.00192346 0.00226703 0.00199308 0.00225839 0.00140755 0.00199308 0.00123522 0.00195708 0.00199308 0.00225839 0.00195708 0.00224975 0.00109662 0.00141498 0.0011505 0.00149095 0.000651852 0.0011505 0.000737343 0.00115213 0.0011505 0.00149095 0.00115213 0.00156693 0.00123522 0.00195708 0.00134619 0.00198776 0.00195708 0.00224975 0.00198776 0.00223906 0.00134619 0.00198776 0.00145716 0.00202094 0.00198776 0.00223906 0.00202094 0.00222838 0.00145716 0.00202094 0.00147746 0.00200741 0.00202094 0.00222838 0.00200741 0.00207598 0.00147746 0.00200741 0.00149777 0.00185442 0.00200741 0.00207598 0.00185442 0.00192357 0.00047