# vtk DataFile Version 3.0
#This file was generated by the deal.II library on 2023/3/2 at 0:23:24
ASCII
DATASET UNSTRUCTURED_GRID

FIELD FieldData 2
CYCLE 1 1 int
149
TIME 1 1 double
0.298
POINTS 26176 double
2 0 0
1.99037 1.22465e-16 0.196034
2.00482 0.0980171 0
1.99516 0.0980171 0.196506
1.99037 1.22465e-16 0.196034
1.96157 1.22465e-16 0.390181
1.99516 0.0980171 0.196506
1.96629 0.0980171 0.39112
2.00482 0.0980171 0
1.99516 0.0980171 0.196506
2.01921 0.19509 0
2.00949 0.19509 0.197918
1.99516 0.0980171 0.196506
1.96629 0.0980171 0.39112
2.00949 0.19509 0.197918
1.98042 0.19509 0.393929
1.96157 1.22465e-16 0.390181
1.91388 1.22465e-16 0.580569
1.96629 0.0980171 0.39112
1.91849 0.0980171 0.581967
1.91388 1.22465e-16 0.580569
1.84776 1.22465e-16 0.765367
1.91849 0.0980171 0.581967
1.85221 0.0980171 0.76721
1.96629 0.0980171 0.39112
1.91849 0.0980171 0.581967
1.98042 0.19509 0.393929
1.93227 0.19509 0.586147
1.91849 0.0980171 0.581967
1.85221 0.0980171 0.76721
1.93227 0.19509 0.586147
1.86551 0.19509 0.77272
2.01921 0.19509 0
2.00949 0.19509 0.197918
2.04306 0.290285 0
2.03322 0.290285 0.200255
2.00949 0.19509 0.197918
1.98042 0.19509 0.393929
2.03322 0.290285 0.200255
2.0038 0.290285 0.398581
2.04306 0.290285 0
2.03322 0.290285 0.200255
2.07612 0.382683 0
2.06612 0.382683 0.203495
2.03322 0.290285 0.200255
2.0038 0.290285 0.398581
2.06612 0.382683 0.203495
2.03623 0.382683 0.405031
1.98042 0.19509 0.393929
1.93227 0.19509 0.586147
2.0038 0.290285 0.398581
1.95509 0.290285 0.593069
1.93227 0.19509 0.586147
1.86551 0.19509 0.77272
1.95509 0.290285 0.593069
1.88754 0.290285 0.781845
2.0038 0.290285 0.398581
1.95509 0.290285 0.593069
2.03623 0.382683 0.405031
1.98672 0.382683 0.602666
1.95509 0.290285 0.593069
1.88754 0.290285 0.781845
1.98672 0.382683 0.602666
1.91809 0.382683 0.794497
1.84776 1.22465e-16 0.765367
1.76384 1.22465e-16 0.942793
1.85221 0.0980171 0.76721
1.76809 0.0980171 0.945063
1.76384 1.22465e-16 0.942793
1.66294 1.22465e-16 1.11114
1.76809 0.0980171 0.945063
1.66694 0.0980171 1.11382
1.85221 0.0980171 0.76721
1.76809 0.0980171 0.945063
1.86551 0.19509 0.77272
1.78079 0.19509 0.951851
1.76809 0.0980171 0.945063
1.66694 0.0980171 1.11382
1.78079 0.19509 0.951851
1.67892 0.19509 1.12182
1.66294 1.22465e-16 1.11114
1.54602 1.22465e-16 1.26879
1.66694 0.0980171 1.11382
1.54974 0.0980171 1.27184
1.54602 1.22465e-16 1.26879
1.41421 1.22465e-16 1.41421
1.54974 0.0980171 1.27184
1.41762 0.0980171 1.41762
1.66694 0.0980171 1.11382
1.54974 0.0980171 1.27184
1.67892 0.19509 1.12182
1.56087 0.19509 1.28098
1.54974 0.0980171 1.27184
1.41762 0.0980171 1.41762
1.56087 0.19509 1.28098
1.4278 0.19509 1.4278
1.86551 0.19509 0.77272
1.78079 0.19509 0.951851
1.88754 0.290285 0.781845
1.80182 0.290285 0.963092
1.78079 0.19509 0.951851
1.67892 0.19509 1.12182
1.80182 0.290285 0.963092
1.69874 0.290285 1.13506
1.88754 0.290285 0.781845
1.80182 0.290285 0.963092
1.91809 0.382683 0.794497
1.83097 0.382683 0.978676
1.80182 0.290285 0.963092
1.69874 0.290285 1.13506
1.83097 0.382683 0.978676
1.72623 0.382683 1.15343
1.67892 0.19509 1.12182
1.56087 0.19509 1.28098
1.69874 0.290285 1.13506
1.57931 0.290285 1.2961
1.56087 0.19509 1.28098
1.4278 0.19509 1.4278
1.57931 0.290285 1.2961
1.44466 0.290285 1.44466
1.69874 0.290285 1.13506
1.57931 0.290285 1.2961
1.72623 0.382683 1.15343
1.60486 0.382683 1.31708
1.57931 0.290285 1.2961
1.44466 0.290285 1.44466
1.60486 0.382683 1.31708
1.46804 0.382683 1.46804
2.07612 0.382683 0
2.06612 0.382683 0.203495
2.11808 0.471397 0
2.10788 0.471397 0.207608
2.06612 0.382683 0.203495
2.03623 0.382683 0.405031
2.10788 0.471397 0.207608
2.07738 0.471397 0.413217
2.11808 0.471397 0
2.10788 0.471397 0.207608
2.16853 0.55557 0
2.15809 0.55557 0.212553
2.10788 0.471397 0.207608
2.07738 0.471397 0.413217
2.15809 0.55557 0.212553
2.12686 0.55557 0.423059
2.03623 0.382683 0.405031
1.98672 0.382683 0.602666
2.07738 0.471397 0.413217
2.02687 0.471397 0.614846
1.98672 0.382683 0.602666
1.91809 0.382683 0.794497
2.02687 0.471397 0.614846
1.95685 0.471397 0.810554
2.07738 0.471397 0.413217
2.02687 0.471397 0.614846
2.12686 0.55557 0.423059
2.07515 0.55557 0.629491
2.02687 0.471397 0.614846
1.95685 0.471397 0.810554
2.07515 0.55557 0.629491
2.00346 0.55557 0.829861
2.16853 0.55557 0
2.15809 0.55557 0.212553
2.22699 0.634393 0
2.21627 0.634393 0.218283
2.15809 0.55557 0.212553
2.12686 0.55557 0.423059
2.21627 0.634393 0.218283
2.1842 0.634393 0.434464
2.22699 0.634393 0
2.21627 0.634393 0.218283
2.29289 0.707107 0
2.28185 0.707107 0.224743
2.21627 0.634393 0.218283
2.1842 0.634393 0.434464
2.28185 0.707107 0.224743
2.24884 0.707107 0.447321
2.12686 0.55557 0.423059
2.07515 0.55557 0.629491
2.1842 0.634393 0.434464
2.1311 0.634393 0.646461
2.07515 0.55557 0.629491
2.00346 0.55557 0.829861
2.1311 0.634393 0.646461
2.05747 0.634393 0.852232
2.1842 0.634393 0.434464
2.1311 0.634393 0.646461
2.24884 0.707107 0.447321
2.19416 0.707107 0.665592
2.1311 0.634393 0.646461
2.05747 0.634393 0.852232
2.19416 0.707107 0.665592
2.11836 0.707107 0.877452
1.91809 0.382683 0.794497
1.83097 0.382683 0.978676
1.95685 0.471397 0.810554
1.86798 0.471397 0.998455
1.83097 0.382683 0.978676
1.72623 0.382683 1.15343
1.86798 0.471397 0.998455
1.76112 0.471397 1.17674
1.95685 0.471397 0.810554
1.86798 0.471397 0.998455
2.00346 0.55557 0.829861
1.91247 0.55557 1.02224
1.86798 0.471397 0.998455
1.76112 0.471397 1.17674
1.91247 0.55557 1.02224
1.80307 0.55557 1.20477
1.72623 0.382683 1.15343
1.60486 0.382683 1.31708
1.76112 0.471397 1.17674
1.6373 0.471397 1.34369
1.60486 0.382683 1.31708
1.46804 0.382683 1.46804
1.6373 0.471397 1.34369
1.49771 0.471397 1.49771
1.76112 0.471397 1.17674
1.6373 0.471397 1.34369
1.80307 0.55557 1.20477
1.6763 0.55557 1.3757
1.6373 0.471397 1.34369
1.49771 0.471397 1.49771
1.6763 0.55557 1.3757
1.53338 0.55557 1.53338
2.00346 0.55557 0.829861
1.91247 0.55557 1.02224
2.05747 0.634393 0.852232
1.96403 0.634393 1.0498
1.91247 0.55557 1.02224
1.80307 0.55557 1.20477
1.96403 0.634393 1.0498
1.85167 0.634393 1.23725
2.05747 0.634393 0.852232
1.96403 0.634393 1.0498
2.11836 0.707107 0.877452
2.02215 0.707107 1.08086
1.96403 0.634393 1.0498
1.85167 0.634393 1.23725
2.02215 0.707107 1.08086
1.90647 0.707107 1.27386
1.80307 0.55557 1.20477
1.6763 0.55557 1.3757
1.85167 0.634393 1.23725
1.72149 0.634393 1.41279
1.6763 0.55557 1.3757
1.53338 0.55557 1.53338
1.72149 0.634393 1.41279
1.57472 0.634393 1.57472
1.85167 0.634393 1.23725
1.72149 0.634393 1.41279
1.90647 0.707107 1.27386
1.77243 0.707107 1.4546
1.72149 0.634393 1.41279
1.57472 0.634393 1.57472
1.77243 0.707107 1.4546
1.62132 0.707107 1.62132
1.41421 1.22465e-16 1.41421
1.26879 1.22465e-16 1.54602
1.41762 0.0980171 1.41762
1.27184 0.0980171 1.54974
1.26879 1.22465e-16 1.54602
1.11114 1.22465e-16 1.66294
1.27184 0.0980171 1.54974
1.11382 0.0980171 1.66694
1.41762 0.0980171 1.41762
1.27184 0.0980171 1.54974
1.4278 0.19509 1.4278
1.28098 0.19509 1.56087
1.27184 0.0980171 1.54974
1.11382 0.0980171 1.66694
1.28098 0.19509 1.56087
1.12182 0.19509 1.67892
1.11114 1.22465e-16 1.66294
0.942793 1.22465e-16 1.76384
1.11382 0.0980171 1.66694
0.945063 0.0980171 1.76809
0.942793 1.22465e-16 1.76384
0.765367 1.22465e-16 1.84776
0.945063 0.0980171 1.76809
0.76721 0.0980171 1.85221
1.11382 0.0980171 1.66694
0.945063 0.0980171 1.76809
1.12182 0.19509 1.67892
0.951851 0.19509 1.78079
0.945063 0.0980171 1.76809
0.76721 0.0980171 1.85221
0.951851 0.19509 1.78079
0.77272 0.19509 1.86551
1.4278 0.19509 1.4278
1.28098 0.19509 1.56087
1.44466 0.290285 1.44466
1.2961 0.290285 1.57931
1.28098 0.19509 1.56087
1.12182 0.19509 1.67892
1.2961 0.290285 1.57931
1.13506 0.290285 1.69874
1.44466 0.290285 1.44466
1.2961 0.290285 1.57931
1.46804 0.382683 1.46804
1.31708 0.382683 1.60486
1.2961 0.290285 1.57931
1.13506 0.290285 1.69874
1.31708 0.382683 1.60486
1.15343 0.382683 1.72623
1.12182 0.19509 1.67892
0.951851 0.19509 1.78079
1.13506 0.290285 1.69874
0.963092 0.290285 1.80182
0.951851 0.19509 1.78079
0.77272 0.19509 1.86551
0.963092 0.290285 1.80182
0.781845 0.290285 1.88754
1.13506 0.290285 1.69874
0.963092 0.290285 1.80182
1.15343 0.382683 1.72623
0.978676 0.382683 1.83097
0.963092 0.290285 1.80182
0.781845 0.290285 1.88754
0.978676 0.382683 1.83097
0.794497 0.382683 1.91809
0.765367 1.22465e-16 1.84776
0.580569 1.22465e-16 1.91388
0.76721 0.0980171 1.85221
0.581967 0.0980171 1.91849
0.580569 1.22465e-16 1.91388
0.390181 1.22465e-16 1.96157
0.581967 0.0980171 1.91849
0.39112 0.0980171 1.96629
0.76721 0.0980171 1.85221
0.581967 0.0980171 1.91849
0.77272 0.19509 1.86551
0.586147 0.19509 1.93227
0.581967 0.0980171 1.91849
0.39112 0.0980171 1.96629
0.586147 0.19509 1.93227
0.393929 0.19509 1.98042
0.390181 1.22465e-16 1.96157
0.196034 1.22465e-16 1.99037
0.39112 0.0980171 1.96629
0.196506 0.0980171 1.99516
0.196034 1.22465e-16 1.99037
0 0 2
0.196506 0.0980171 1.99516
1.2276e-16 0.0980171 2.00482
0.39112 0.0980171 1.96629
0.196506 0.0980171 1.99516
0.393929 0.19509 1.98042
0.197918 0.19509 2.00949
0.196506 0.0980171 1.99516
1.2276e-16 0.0980171 2.00482
0.197918 0.19509 2.00949
1.23641e-16 0.19509 2.01921
0.77272 0.19509 1.86551
0.586147 0.19509 1.93227
0.781845 0.290285 1.88754
0.593069 0.290285 1.95509
0.586147 0.19509 1.93227
0.393929 0.19509 1.98042
0.593069 0.290285 1.95509
0.398581 0.290285 2.0038
0.781845 0.290285 1.88754
0.593069 0.290285 1.95509
0.794497 0.382683 1.91809
0.602666 0.382683 1.98672
0.593069 0.290285 1.95509
0.398581 0.290285 2.0038
0.602666 0.382683 1.98672
0.405031 0.382683 2.03623
0.393929 0.19509 1.98042
0.197918 0.19509 2.00949
0.398581 0.290285 2.0038
0.200255 0.290285 2.03322
0.197918 0.19509 2.00949
1.23641e-16 0.19509 2.01921
0.200255 0.290285 2.03322
1.25101e-16 0.290285 2.04306
0.398581 0.290285 2.0038
0.200255 0.290285 2.03322
0.405031 0.382683 2.03623
0.203495 0.382683 2.06612
0.200255 0.290285 2.03322
1.25101e-16 0.290285 2.04306
0.203495 0.382683 2.06612
1.27126e-16 0.382683 2.07612
1.46804 0.382683 1.46804
1.31708 0.382683 1.60486
1.49771 0.471397 1.49771
[...]
POINT_DATA 26176
SCALARS U double 1
LOOKUP_TABLE default
-0.0171494 -0.0130719 -0.017084 -0.0130326 -0.0130719 -0.010527 -0.0130326 -0.0105134 -0.017084 -0.0130326 -0.0168982 -0.0129293 -0.0130326 -0.0105134 -0.0129293 -0.0104797 -0.010527 -0.00832127 -0.0105134 -0.00832328 -0.00832127 -0.00699495 -0.00832328 -0.0070065 -0.0105134 -0.00832328 -0.0104797 -0.008334 -0.00832328 -0.0070065 -0.008334 -0.00704452 -0.0168982 -0.0129293 -0.0167535 -0.0127627 -0.0129293 -0.0104797 -0.0127627 -0.0104424 -0.0167535 -0.0127627 -0.0169765 -0.0124975 -0.0127627 -0.0104424 -0.0124975 -0.0104324 -0.0104797 -0.008334 -0.0104424 -0.00835628 -0.008334 -0.00704452 -0.00835628 -0.00711113 -0.0104424 -0.00835628 -0.0104324 -0.00838832 -0.00835628 -0.00711113 -0.00838832 -0.0072076 -0.00699495 -0.00536647 -0.0070065 -0.00536793 -0.00536647 -0.00327684 -0.00536793 -0.00325102 -0.0070065 -0.00536793 -0.00704452 -0.00537382 -0.00536793 -0.00325102 -0.00537382 -0.00316993 -0.00327684 -0.00169297 -0.00325102 -0.00165636 -0.00169297 -0.000906008 -0.00165636 -0.000892457 -0.00325102 -0.00165636 -0.00316993 -0.0015379 -0.00165636 -0.000892457 -0.0015379 -0.000843581 -0.00704452 -0.00537382 -0.00711113 -0.00538376 -0.00537382 -0.00316993 -0.00538376 -0.00302278 -0.00711113 -0.00538376 -0.0072076 -0.00539949 -0.00538376 -0.00302278 -0.00539949 -0.0028047 -0.00316993 -0.0015379 -0.00302278 -0.00131515 -0.0015379 -0.000843581 -0.00131515 -0.000738013 -0.00302278 -0.00131515 -0.0028047 -0.000970696 -0.00131515 -0.000738013 -0.000970696 -0.000556884 -0.0169765 -0.0124975 -0.0167926 -0.0123479 -0.0124975 -0.0104324 -0.0123479 -0.0104165 -0.0167926 -0.0123479 -0.0165335 -0.012253 -0.0123479 -0.0104165 -0.012253 -0.0104087 -0.0104324 -0.00838832 -0.0104165 -0.00843471 -0.00838832 -0.0072076 -0.00843471 -0.00732407 -0.0104165 -0.00843471 -0.0104087 -0.00847265 -0.00843471 -0.00732407 -0.00847265 -0.00743668 -0.0165335 -0.012253 -0.0163165 -0.0121773 -0.012253 -0.0104087 -0.0121773 -0.0103939 -0.0163165 -0.0121773 -0.0161068 -0.0120877 -0.0121773 -0.0103939 -0.0120877 -0.0103355 -0.0104087 -0.00847265 -0.0103939 -0.00846497 -0.00847265 -0.00743668 -0.00846497 -0.00749575 -0.0103939 -0.00846497 -0.0103355 -0.00836037 -0.00846497 -0.00749575 -0.00836037 -0.00742758 -0.0072076 -0.00539949 -0.00732407 -0.00542423 -0.00539949 -0.0028047 -0.00542423 -0.0025267 -0.00732407 -0.00542423 -0.00743668 -0.00545268 -0.00542423 -0.0025267 -0.00545268 -0.00221624 -0.0028047 -0.000970696 -0.0025267 -0.000512092 -0.000970696 -0.000556884 -0.000512092 -0.000302037 -0.0025267 -0.000512092 -0.00221624 1.83487e-05 -0.000512092 -0.000302037 1.83487e-05 -7.09521e-06 -0.00743668 -0.00545268 -0.00749575 -0.00545963 -0.00545268 -0.00221624 -0.00545963 -0.00190465 -0.00749575 -0.00545963 -0.00742758 -0.00539243 -0.00545963 -0.00190465 -0.00539243 -0.00160853 -0.00221624 1.83487e-05 -0.00190465 0.000552306 1.83487e-05 -7.09521e-06 0.000552306 0.000267994 -0.00190465 0.000552306 -0.00160853 0.00102049 0.000552306 0.000267994 0.00102049 0.000458518 -0.000906008 -9.47291e-05 -0.000892457 -0.000109432 -9.47291e-05 0.000834917 -0.000109432 0.000811796 -0.000892457 -0.000109432 -0.000843581 -0.000149579 -0.000109432 0.000811796 -0.000149579 0.000743531 0.000834917 0.000695793 0.000811796 0.000674313 0.000695793 -0.000899224 0.000674313 -0.000912557 0.000811796 0.000674313 0.000743531 0.000611039 0.000674313 -0.000912557 0.000611039 -0.000947168 -0.000843581 -0.000149579 -0.000738013 -0.000204338 -0.000149579 0.000743531 -0.000204338 0.000634128 -0.000738013 -0.000204338 -0.000556884 -0.000263412 -0.000204338 0.000634128 -0.000263412 0.000489252 0.000743531 0.000611039 0.000634128 0.000510187 0.000611039 -0.000947168 0.000510187 -0.00099008 0.000634128 0.000510187 0.000489252 0.000379202 0.000510187 -0.00099008 0.000379202 -0.00102801 -0.000899224 -0.00264524 -0.000912557 -0.00263748 -0.00264524 -0.00383984 -0.00263748 -0.00382556 -0.000912557 -0.00263748 -0.000947168 -0.00259954 -0.00263748 -0.00382556 -0.00259954 -0.00375914 -0.00383984 -0.00454789 -0.00382556 -0.00456617 -0.00454789 -0.00349519 -0.00456617 -0.00353871 -0.00382556 -0.00456617 -0.00375914 -0.00459864 -0.00456617 -0.00353871 -0.00459864 -0.00365887 -0.000947168 -0.00259954 -0.00099008 -0.00249848 -0.00259954 -0.00375914 -0.00249848 -0.00358364 -0.00099008 -0.00249848 -0.00102801 -0.00230923 -0.00249848 -0.00358364 -0.00230923 -0.00324468 -0.00375914 -0.00459864 -0.00358364 -0.00458241 -0.00459864 -0.00365887 -0.00458241 -0.00381776 -0.00358364 -0.00458241 -0.00324468 -0.00442658 -0.00458241 -0.00381776 -0.00442658 -0.00393083 -0.000556884 -0.000263412 -0.000302037 -0.000326159 -0.000263412 0.000489252 -0.000326159 0.000314067 -0.000302037 -0.000326159 -7.09521e-06 -0.000407459 -0.000326159 0.000314067 -0.000407459 0.000110532 0.000489252 0.000379202 0.000314067 0.00022954 0.000379202 -0.00102801 0.00022954 -0.00104903 0.000314067 0.00022954 0.000110532 7.52257e-05 0.00022954 -0.00104903 7.52257e-05 -0.00103912 -7.09521e-06 -0.000407459 0.000267994 -0.000534958 -0.000407459 0.000110532 -0.000534958 -0.000123906 0.000267994 -0.000534958 0.000458518 -0.000737742 -0.000534958 -0.000123906 -0.000737742 -0.000394372 0.000110532 7.52257e-05 -0.000123906 -7.33182e-05 7.52257e-05 -0.00103912 -7.33182e-05 -0.000983739 -0.000123906 -7.33182e-05 -0.000394372 -0.000217282 -7.33182e-05 -0.000983739 -0.000217282 -0.000880935 -0.00102801 -0.00230923 -0.00104903 -0.00203289 -0.00230923 -0.00324468 -0.00203289 -0.00272627 -0.00104903 -0.00203289 -0.00103912 -0.00169501 -0.00203289 -0.00272627 -0.00169501 -0.00206876 -0.00324468 -0.00442658 -0.00272627 -0.00402881 -0.00442658 -0.00393083 -0.00402881 -0.00384506 -0.00272627 -0.00402881 -0.00206876 -0.00330262 -0.00402881 -0.00384506 -0.00330262 -0.00334808 -0.00103912 -0.00169501 -0.000983739 -0.00133158 -0.00169501 -0.00206876 -0.00133158 -0.00136372 -0.000983739 -0.00133158 -0.000880935 -0.000979562 -0.00133158 -0.00136372 -0.000979562 -0.00073139 -0.00206876 -0.00330262 -0.00136372 -0.00222345 -0.00330262 -0.00334808 -0.00222345 -0.00224873 -0.00136372 -0.00222345 -0.00073139 -0.000881266 -0.00222345 -0.00224873 -0.000881266 -0.000515055 -0.0161068 -0.0120877 -0.0158617 -0.0119359 -0.0120877 -0.0103355 -0.0119359 -0.0101879 -0.0158617 -0.0119359 -0.0155442 -0.0116758 -0.0119359 -0.0101879 -0.0116758 -0.00990588 -0.0103355 -0.00836037 -0.0101879 -0.00810341 -0.00836037 -0.00742758 -0.00810341 -0.00715067 -0.0101879 -0.00810341 -0.00990588 -0.00765261 -0.00810341 -0.00715067 -0.00765261 -0.00660552 -0.0155442 -0.0116758 -0.0151415 -0.0112792 -0.0116758 -0.00990588 -0.0112792 -0.00945698 -0.0151415 -0.0112792 -0.0146756 -0.0107457 -0.0112792 -0.00945698 -0.0107457 -0.0088318 -0.00990588 -0.00765261 -0.00945698 -0.00699878 -0.00765261 -0.00660552 -0.00699878 -0.00578671 -0.00945698 -0.00699878 -0.0088318 -0.00617503 -0.00699878 -0.00578671 -0.00617503 -0.00476032 -0.00742758 -0.00539243 -0.00715067 -0.00517884 -0.00539243 -0.00160853 -0.00517884 -0.00131835 -0.00715067 -0.00517884 -0.00660552 -0.00475322 -0.00517884 -0.00131835 -0.00475322 -0.00100465 -0.00160853 0.00102049 -0.00131835 0.0013793 0.00102049 0.000458518 0.0013793 0.000520532 -0.00131835 0.0013793 -0.00100465 0.00162238 0.0013793 0.000520532 0.00162238 0.000445464 -0.00660552 -0.00475322 -0.00578671 -0.00409149 -0.00475322 -0.00100465 -0.00409149 -0.000640545 -0.00578671 -0.00409149 -0.00476032 -0.00323606 -0.00409149 -0.000640545 -0.00323606 -0.000226482 -0.00100465 0.00162238 -0.000640545 0.00177126 0.00162238 0.000445464 0.00177126 0.000257745 -0.000640545 0.00177126 -0.000226482 0.00185354 0.00177126 0.000257745 0.00185354 1.33609e-06 -0.0146756 -0.0107457 -0.014173 -0.0101109 -0.0107457 -0.0088318 -0.0101109 -0.00804758 -0.014173 -0.0101109 -0.0138263 -0.00940466 -0.0101109 -0.00804758 -0.00940466 -0.00715296 -0.0088318 -0.00617503 -0.00804758 -0.00525357 -0.00617503 -0.00476032 -0.00525357 -0.00365348 -0.00804758 -0.00525357 -0.00715296 -0.00432787 -0.00525357 -0.00365348 -0.00432787 -0.00261726 -0.0138263 -0.00940466 -0.0141776 -0.00856672 -0.00940466 -0.00715296 -0.00856672 -0.00624223 -0.0141776 -0.00856672 -0.0140745 -0.00790579 -0.00856672 -0.00624223 -0.00790579 -0.00533285 -0.00715296 -0.00432787 -0.00624223 -0.00348254 -0.00432787 -0.00261726 -0.00348254 -0.00178068 -0.00624223 -0.00348254 -0.00533285 -0.00279742 -0.00348254 -0.00178068 -0.00279742 -0.00120883 -0.00476032 -0.00323606 -0.00365348 -0.00229362 -0.00323606 -0.000226482 -0.00229362 0.000199499 -0.00365348 -0.00229362 -0.00261726 -0.00140286 -0.00229362 0.000199499 -0.00140286 0.000573771 -0.000226482 0.00185354 0.000199499 0.00188482 0.00185354 1.33609e-06 0.00188482 -0.000273951 0.000199499 0.00188482 0.000573771 0.00186569 0.00188482 -0.000273951 0.00186569 -0.000519427 -0.00261726 -0.00140286 -0.00178068 -0.000686357 -0.00140286 0.000573771 -0.000686357 0.000834279 -0.00178068 -0.000686357 -0.00120883 -0.000212712 -0.000686357 0.000834279 -0.000212712 0.000946841 0.000573771 0.00186569 0.000834279 0.00179327 0.00186569 -0.000519427 0.00179327 -0.000689204 0.000834279 0.00179327 0.000946841 0.00167589 0.00179327 -0.000689204 0.00167589 -0.000743505 0.000458518 -0.000737742 0.000520532 -0.00103296 -0.000737742 -0.000394372 -0.00103296 -0.000702882 0.000520532 -0.00103296 0.000445464 -0.0014174 -0.00103296 -0.000702882 -0.0014174 -0.00103979 -0.000394372 -0.000217282 -0.000702882 -0.00037018 -0.000217282 -0.000880935 -0.00037018 -0.000755277 -0.000702882 -0.00037018 -0.00103979 -0.000543405 -0.00037018 -0.000755277 -0.000543405 -0.000652931 0.000445464 -0.0014174 0.000257745 -0.00186539 -0.0014174 -0.00103979 -0.00186539 -0.00137452 0.000257745 -0.00186539 1.33609e-06 -0.0023297 -0.00186539 -0.00137452 -0.0023297 -0.00165028 -0.00103979 -0.000543405 -0.00137452 -0.000720419 -0.000543405 -0.000652931 -0.000720419 -0.000611405 -0.00137452 -0.000720419 -0.00165028 -0.000837426 -0.000720419 -0.000611405 -0.000837426 -0.000624118 -0.000880935 -0.000979562 -0.000755277 -0.000677785 -0.000979562 -0.00073139 -0.000677785 -0.000288414 -0.000755277 -0.000677785 -0.000652931 -0.000467151 -0.000677785 -0.000288414 -0.000467151 -0.000112857 -0.00073139 -0.000881266 -0.000288414 0.000503759 -0.000881266 -0.000515055 0.000503759 0.00162474 -0.000288414 0.000503759 -0.000112857 0.00164714 0.000503759 0.00162474 0.00164714 0.0037373 -0.000652931 -0.000467151 -0.000611405 -0.000379371 -0.000467151 -0.000112857 -0.000379371 -0.00021885 -0.000611405 -0.000379371 -0.000624118 -0.000418125 -0.000379371 -0.00021885 -0.000418125 -0.000555836 -0.000112857 0.00164714 -0.00021885 0.00233138 0.00164714 0.0037373 0.00233138 0.0053973 -0.00021885 0.00233138 -0.000555836 0.00250975 0.00233138 0.0053973 0.00250975 0.00640405 1.33609e-06 -0.0023297 -0.000273951 -0.00274366 -0.0023297 -0.00165028 -0.00274366 -0.00179065 -0.000273951 -0.00274366 -0.000519427 -0.00302833 -0.00274366 -0.00179065 -0.00302833 -0.00172349 -0.00165028 -0.000837426 -0.00179065 -0.000791935 -0.000837426 -0.000624118 -0.000791935 -0.000630487 -0.00179065 -0.000791935 -0.00172349 -0.000485319 -0.000791935 -0.000630487 -0.000485319 -0.00054309 -0.000519427 -0.00302833 -0.000689204 -0.00311011 -0.00302833 -0.00172349 -0.00311011 -0.00141682 -0.000689204 -0.00311011 -0.000743505 -0.00294893 -0.00311011 -0.00141682 -0.00294893 -0.000907763 -0.00172349 -0.000485319 -0.00141682 0.000121993 -0.000485319 -0.00054309 0.000121993 -0.000290807 -0.00141682 0.000121993 -0.000907763 0.000981302 0.000121993 -0.000290807 0.000981302 0.000156885 -0.000624118 -0.000418125 -0.000630487 -0.00054756 -0.000418125 -0.000555836 -0.00054756 -0.00103336 -0.000630487 -0.00054756 -0.00054309 -0.000697821 -0.00054756 -0.00103336 -0.000697821 -0.00155154 -0.000555836 0.00250975 -0.00103336 0.00229967 0.00250975 0.00640405 0.00229967 0.00683046 -0.00103336 0.00229967 -0.00155154 0.00188745 0.00229967 0.00683046 0.00188745 0.00689858 -0.00054309 -0.000697821 -0.000290807 -0.000784509 -0.000697821 -0.00155154 -0.000784509 -0.00201623 -0.000290807 -0.000784509 0.000156885 -0.00073233 -0.000784509 -0.00201623 -0.00073233 -0.00234087 -0.00155154 0.00188745 -0.00201623 0.00143698 0.00188745 0.00689858 0.00143698 0.0068202 -0.00201623 0.00143698 -0.00234087 0.00105702 0.00143698 0.0068202 0.00105702 0.00671703 -0.0140853 -0.00791868 -0.0141895 -0.00858096 -0.00791868 -0.00534674 -0.00858096 -0.00625749 -0.0141895 -0.00858096 -0.0138393 -0.00942011 -0.00858096 -0.00625749 -0.00942011 -0.00716944 -0.00534674 -0.00281029 -0.00625749 -0.00349687 -0.00281029 -0.00121435 -0.00349687 -0.00178965 -0.00625749 -0.00349687 -0.00716944 -0.0043435 -0.00349687 -0.00178965 -0.0043435 -0.00262905 -0.0138393 -0.00942011 -0.014187 -0.0101274 -0.00942011 -0.00716944 -0.0101274 -0.00806509 -0.014187 -0.0101274 -0.0146902 -0.010763 -0.0101274 -0.00806509 -0.010763 -0.00885007 -0.00716944 -0.0043435 -0.00806509 -0.00527028 -0.0043435 -0.00262905 -0.00527028 -0.00366724 -0.00806509 -0.00527028 -0.00885007 -0.00619253 -0.00527028 -0.00366724 -0.00619253 -0.0047753 -0.00121435 -0.000205846 -0.00178965 -0.000686679 -0.000205846 0.000955924 -0.000686679 0.000836674 -0.00178965 -0.000686679 -0.00262905 -0.00140875 -0.000686679 0.000836674 -0.00140875 0.000570947 0.000955924 0.00167714 0.000836674 0.00179218 0.00167714 -0.000745679 0.00179218 -0.000691597 0.000836674 0.00179218 0.000570947 0.00186264 0.00179218 -0.000691597 0.00186264 -0.000522112 -0.00262905 -0.00140875 -0.00366724 -0.00230308 -0.00140875 0.000570947 -0.00230308 0.000193337 -0.00366724 -0.00230308 -0.0047753 -0.00324746 -0.00230308 0.000193337 -0.00324746 -0.000234451 0.000570947 0.00186264 0.000193337 0.00188038 0.00186264 -0.000522112 0.00188038 -0.00027696 0.000193337 0.00188038 -0.000234451 0.00184823 0.00188038 -0.00027696 0.00184823 -1.9859e-06 -0.0146902 -0.010763 -0.0151566 -0.0112969 -0.010763 -0.00885007 -0.0112969 -0.00947569 -0.0151566 -0.0112969 -0.0155595 -0.0116936 -0.0112969 -0.00947569 -0.0116936 -0.00992469 -0.00885007 -0.00619253 -0.00947569 -0.00701675 -0.00619253 -0.0047753 -0.00701675 -0.00580233 -0.00947569 -0.00701675 -0.00992469 -0.00767069 -0.00701675 -0.00580233 -0.00767069 -0.00662133 -0.0155595 -0.0116936 -0.0158768 -0.0119534 -0.0116936 -0.00992469 -0.0119534 -0.0102064 -0.0158768 -0.0119534 -0.0161214 -0.0121046 -0.0119534 -0.0102064 -0.0121046 -0.0103533 -0.00992469 -0.00767069 -0.0102064 -0.00812121 -0.00767069 -0.00662133 -0.00812121 -0.00716631 -0.0102064 -0.00812121 -0.0103533 -0.00837751 -0.00812121 -0.00716631 -0.00837751 -0.00744267 -0.0047753 -0.00324746 -0.00580233 -0.00410379 -0.00324746 -0.000234451 -0.00410379 -0.000649368 -0.00580233 -0.00410379 -0.00662133 -0.00476583 -0.00410379 -0.000649368 -0.00476583 -0.00101381 -0.000234451 0.00184823 -0.000649368 0.00176545 0.00184823 -1.9859e-06 0.00176545 0.000254158 -0.000649368 0.00176545 -0.00101381 0.00161631 0.00176545 0.000254158 0.00161631 0.000441687 -0.00662133 -0.00476583 -0.00716631 -0.00519139 -0.00476583 -0.00101381 -0.00519139 -0.00132755 -0.00716631 -0.00519139 -0.00744267 -0.00540461 -0.00519139 -0.00132755 -0.00540461 -0.00161753 -0.00101381 0.00161631 -0.00132755 0.00137314 0.00161631 0.000441687 0.00137314 0.000516659 -0.00132755 0.00137314 -0.00161753 0.0010144 0.00137314 0.000516659 0.0010144 0.000454656 -0.000745679 -0.00295107 -0.000691597 -0.00311251 -0.00295107 -0.000916353 -0.00311251 -0.00142549 -0.000691597 -0.00311251 -0.000522112 -0.00303096 -0.00311251 -0.00142549 -0.00303096 -0.00173192 -0.000916353 0.000948638 -0.00142549 9.12997e-05 0.000948638 7.4917e-05 9.12997e-05 -0.000365051 -0.00142549 9.12997e-05 -0.00173192 -0.000513136 9.12997e-05 -0.000365051 -0.000513136 -0.000608018 -0.000522112 -0.00303096 -0.00027696 -0.00274647 -0.00303096 -0.00173192 -0.00274647 -0.00179856 -0.00027696 -0.00274647 -1.9859e-06 -0.00233264 -0.00274647 -0.00179856 -0.00233264 -0.00165745 -0.00173192 -0.000513136 -0.00179856 -0.000816243 -0.000513136 -0.000608018 -0.000816243 -0.000685277 -0.00179856 -0.000816243 -0.00165745 -0.000857902 -0.000816243 -0.000685277 -0.000857902 -0.000668698 7.4917e-05 -0.000877368 -0.000365051 -0.0009136 -0.000877368 -0.00253641 -0.0009136 -0.00218826 -0.000365051 -0.0009136 -0.000608018 -0.000808608 -0.0009136 -0.00218826 -0.000808608 -0.00169722 -0.00253641 0.000840932 -0.00218826 0.00125056 0.000840932 0.00652289 0.00125056 0.00665465 -0.00218826 0.00125056 -0.00169722 0.0017327 0.00125056 0.00665465 0.0017327 0.00676376 -0.000608018 -0.000808608 -0.000685277 -0.000639187 -0.000808608 -0.00169722 -0.000639187 -0.001152 -0.000685277 -0.000639187 -0.000668698 -0.000491137 -0.000639187 -0.001152 -0.000491137 -0.000648764 -0.00169722 0.0017327 -0.001152 0.00217623 0.0017327 0.00676376 0.00217623 0.00672541 -0.001152 0.00217623 -0.000648764 0.00241505 0.00217623 0.00672541 0.00241505 0.00632557 -1.9859e-06 -0.00233264 0.000254158 -0.0018684 -0.00233264 -0.00165745 -0.0018684 -0.0013808 0.000254158 -0.0018684 0.000441687 -0.0014204 -0.0018684 -0.0013808 -0.0014204 -0.00104514 -0.00165745 -0.000857902 -0.0013808 -0.000737044 -0.000857902 -0.000668698 -0.000737044 -0.000646351 -0.0013808 -0.000737044 -0.00104514 -0.000556418 -0.000737044 -0.000646351 -0.000556418 -0.000679308 0.000441687 -0.0014204 0.000516659 -0.00103588 -0.0014204 -0.00104514 -0.00103588 -0.000707317 0.000516659 -0.00103588 0.000454656 -0.000740522 -0.00103588 -0.000707317 -0.000740522 -0.000397973 -0.00104514 -0.000556418 -0.000707317 -0.000380008 -0.000556418 -0.000679308 -0.000380008 -0.00077444 -0.000707317 -0.000380008 -0.000397973 -0.000224458 -0.000380008 -0.00077444 -0.000224458 -0.000894335 -0.000668698 -0.000491137 -0.000646351 -0.000435408 -0.000491137 -0.000648764 -0.000435408 -0.000288929 -0.000646351 -0.000435408 -0.000679308 -0.000508561 -0.000435408 -0.000288929 -0.000508561 -0.000163759 -0.000648764 0.00241505 -0.000288929 0.00226142 0.00241505 0.00632557 0.00226142 0.0053407 -0.000288929 0.00226142 -0.000163759 0.00159726 0.00226142 0.0053407 0.00159726 0.00369795 -0.000679308 -0.000508561 -0.00077444 -0.000707233 -0.000508561 -0.000163759 -0.000707233 -0.000324027 -0.00077444 -0.000707233 -0.000894335 -0.000999707 -0.000707233 -0.000324027 -0.000999707 -0.000755371 -0.000163759 0.00159726 -0.000324027 0.000469455 0.00159726 0.00369795 0.000469455 0.00159814 -0.000324027 0.000469455 -0.000755371 -0.000904028 0.000469455 0.00159814 -0.000904028 -0.000532429 -0.0161214 -0.0121046 -0.0163302 -0.0121931 -0.0121046 -0.0103533 -0.0121931 -0.0104105 -0.0163302 -0.0121931 -0.0165461 -0.0122674 -0.0121931 -0.0104105 -0.0122674 -0.0104238 -0.0103533 -0.00837751 -0.0104105 -0.00848104 -0.00837751 -0.00744267 -0.00848104 -0.00750995 -0.0104105 -0.00848104 -0.0104238 -0.00848726 -0.00848104 -0.00750995 -0.00848726 -0.00744962 -0.0165461 -0.0122674 -0.0168037 -0.0123605 -0.0122674 -0.0104238 -0.0123605 -0.0104297 -0.0168037 -0.0123605 -0.0169857 -0.012508 -0.0123605 -0.0104297 -0.012508 -0.0104435 -0.0104238 -0.00848726 -0.0104297 -0.0084475 -0.00848726 -0.00744962 -0.0084475 -0.00733542 -0.0104297 -0.0084475 -0.0104435 -0.00839897 -0.0084475 -0.00733542 -0.00839897 -0.00721707 -0.00744267 -0.00540461 -0.00750995 -0.00547114 -0.00540461 -0.00161753 -0.00547114 -0.00191321 -0.00750995 -0.00547114 -0.00744962 -0.00546322 -0.00547114 -0.00191321 -0.00546322 -0.00222413 -0.00161753 0.0010144 -0.00191321 0.00054646 0.0010144 0.000454656 0.00054646 0.000264259 -0.00191321 0.00054646 -0.00222413 1.29183e-05 0.00054646 0.000264259 1.29183e-05 -1.05859e-05 -0.00744962 -0.00546322 -0.00733542 -0.00543351 -0.00546322 -0.00222413 -0.00543351 -0.00253368 -0.00733542 -0.00543351 -0.00721707 -0.00540726 -0.00543351 -0.00253368 -0.00540726 -0.00281058 -0.00222413 1.29183e-05 -0.00253368 -0.000516935 1.29183e-05 -1.05859e-05 -0.000516935 -0.000305165 -0.00253368 -0.000516935 -0.00281058 -0.000974792 -0.000516935 -0.000305165 -0.000974792 -0.00055954 -0.0169857 -0.012508 -0.0167607 -0.0127708 -0.012508 -0.0104435 -0.0127708 -0.010451