# vtk DataFile Version 3.0
#This file was generated by the deal.II library on 2023/3/1 at 4:16:57
ASCII
DATASET UNSTRUCTURED_GRID

FIELD FieldData 2
CYCLE 1 1 int
13
TIME 1 1 double
0.026
POINTS 2152 double
-1.41421 1.22465e-16 1.41421
-2 0 0
-1.62132 0.707107 1.62132
-2.29289 0.707107 2.80798e-16
-1.62132 0.707107 1.62132
-2.29289 0.707107 2.80798e-16
-2.12132 1 2.12132
-3 1 0
-2.12132 -1 2.12132
-3 -1 0
-1.62132 -0.707107 1.62132
-2.29289 -0.707107 2.80798e-16
-1.62132 -0.707107 1.62132
-2.29289 -0.707107 2.80798e-16
-1.41421 1.22465e-16 1.41421
-2 0 0
-2.82843 0 2.82843
-4 0 0
-2.62132 -0.707107 2.62132
-3.70711 -0.707107 4.5399e-16
-2.62132 -0.707107 2.62132
-3.70711 -0.707107 4.5399e-16
-2.12132 -1 2.12132
-3 -1 0
-2.12132 1 2.12132
-3 1 0
-2.62132 0.707107 2.62132
-3.70711 0.707107 4.5399e-16
-2.62132 0.707107 2.62132
-3.70711 0.707107 4.5399e-16
-2.82843 0 2.82843
-4 0 0
-2 0 0
-1.41421 1.22465e-16 -1.41421
-2.29289 0.707107 2.80798e-16
-1.62132 0.707107 -1.62132
-1.41421 1.22465e-16 -1.41421
0 0 -2
-1.62132 0.707107 -1.62132
-4.21198e-16 0.707107 -2.29289
-2.29289 0.707107 2.80798e-16
-1.62132 0.707107 -1.62132
-3 1 0
-2.12132 1 -2.12132
-1.62132 0.707107 -1.62132
-4.21198e-16 0.707107 -2.29289
-2.12132 1 -2.12132
0 1 -3
-3 -1 0
-2.12132 -1 -2.12132
-2.29289 -0.707107 2.80798e-16
-1.62132 -0.707107 -1.62132
-2.12132 -1 -2.12132
0 -1 -3
-1.62132 -0.707107 -1.62132
-4.21198e-16 -0.707107 -2.29289
-2.29289 -0.707107 2.80798e-16
-1.62132 -0.707107 -1.62132
-2 0 0
-1.41421 1.22465e-16 -1.41421
-1.62132 -0.707107 -1.62132
-4.21198e-16 -0.707107 -2.29289
-1.41421 1.22465e-16 -1.41421
0 0 -2
-4 0 0
-2.82843 0 -2.82843
-3.70711 -0.707107 4.5399e-16
-2.62132 -0.707107 -2.62132
-2.82843 0 -2.82843
0 0 -4
-2.62132 -0.707107 -2.62132
-6.80984e-16 -0.707107 -3.70711
-3.70711 -0.707107 4.5399e-16
-2.62132 -0.707107 -2.62132
-3 -1 0
-2.12132 -1 -2.12132
-2.62132 -0.707107 -2.62132
-6.80984e-16 -0.707107 -3.70711
-2.12132 -1 -2.12132
0 -1 -3
-3 1 0
-2.12132 1 -2.12132
-3.70711 0.707107 4.5399e-16
-2.62132 0.707107 -2.62132
-2.12132 1 -2.12132
0 1 -3
-2.62132 0.707107 -2.62132
-6.80984e-16 0.707107 -3.70711
-3.70711 0.707107 4.5399e-16
-2.62132 0.707107 -2.62132
-4 0 0
-2.82843 0 -2.82843
-2.62132 0.707107 -2.62132
-6.80984e-16 0.707107 -3.70711
-2.82843 0 -2.82843
0 0 -4
0 0 -2
1.41421 1.22465e-16 -1.41421
-4.21198e-16 0.707107 -2.29289
1.62132 0.707107 -1.62132
-4.21198e-16 0.707107 -2.29289
1.62132 0.707107 -1.62132
0 1 -3
2.12132 1 -2.12132
0 -1 -3
2.12132 -1 -2.12132
-4.21198e-16 -0.707107 -2.29289
1.62132 -0.707107 -1.62132
-4.21198e-16 -0.707107 -2.29289
1.62132 -0.707107 -1.62132
0 0 -2
1.41421 1.22465e-16 -1.41421
0 0 -4
2.82843 0 -2.82843
-6.80984e-16 -0.707107 -3.70711
2.62132 -0.707107 -2.62132
-6.80984e-16 -0.707107 -3.70711
2.62132 -0.707107 -2.62132
0 -1 -3
2.12132 -1 -2.12132
0 1 -3
2.12132 1 -2.12132
-6.80984e-16 0.707107 -3.70711
2.62132 0.707107 -2.62132
-6.80984e-16 0.707107 -3.70711
2.62132 0.707107 -2.62132
0 0 -4
2.82843 0 -2.82843
2 0 0
1.84776 1.22465e-16 0.765367
2.07612 0.382683 0
1.91809 0.382683 0.794497
2.07612 -0.382683 0
1.91809 -0.382683 0.794497
2 0 0
1.84776 1.22465e-16 0.765367
2.62132 -0.707107 -2.62132
3.42492 -0.707107 -1.41865
2.39192 -0.92388 -2.39192
3.12519 -0.92388 -1.2945
2.39192 -0.92388 -2.39192
3.12519 -0.92388 -1.2945
2.12132 -1 -2.12132
2.77164 -1 -1.14805
1.62132 0.707107 -1.62132
2.11836 0.707107 -0.877452
1.85072 0.92388 -1.85072
2.41809 0.92388 -1.0016
1.85072 0.92388 -1.85072
2.41809 0.92388 -1.0016
2.12132 1 -2.12132
2.77164 1 -1.14805
2.12132 -1 -2.12132
2.77164 -1 -1.14805
1.85072 -0.92388 -1.85072
2.41809 -0.92388 -1.0016
1.85072 -0.92388 -1.85072
2.41809 -0.92388 -1.0016
1.62132 -0.707107 -1.62132
2.11836 -0.707107 -0.877452
2.12132 1 -2.12132
2.77164 1 -1.14805
2.39192 0.92388 -2.39192
3.12519 0.92388 -1.2945
2.39192 0.92388 -2.39192
3.12519 0.92388 -1.2945
2.62132 0.707107 -2.62132
3.42492 0.707107 -1.41865
4 0 0
3.69552 0 1.53073
3.92388 -0.382683 0
3.62519 -0.382683 1.5016
3.92388 0.382683 0
3.62519 0.382683 1.5016
4 0 0
3.69552 0 1.53073
1.41421 1.22465e-16 -1.41421
1.84776 1.22465e-16 -0.765367
1.46804 0.382683 -1.46804
1.91809 0.382683 -0.794497
1.84776 1.22465e-16 -0.765367
2 0 0
1.91809 0.382683 -0.794497
2.07612 0.382683 0
1.46804 0.382683 -1.46804
1.91809 0.382683 -0.794497
1.62132 0.707107 -1.62132
2.11836 0.707107 -0.877452
1.91809 0.382683 -0.794497
2.07612 0.382683 0
2.11836 0.707107 -0.877452
2.29289 0.707107 0
1.62132 -0.707107 -1.62132
2.11836 -0.707107 -0.877452
1.46804 -0.382683 -1.46804
1.91809 -0.382683 -0.794497
2.11836 -0.707107 -0.877452
2.29289 -0.707107 0
1.91809 -0.382683 -0.794497
2.07612 -0.382683 0
1.46804 -0.382683 -1.46804
1.91809 -0.382683 -0.794497
1.41421 1.22465e-16 -1.41421
1.84776 1.22465e-16 -0.765367
1.91809 -0.382683 -0.794497
2.07612 -0.382683 0
1.84776 1.22465e-16 -0.765367
2 0 0
2.82843 0 -2.82843
3.69552 0 -1.53073
2.7746 -0.382683 -2.7746
3.62519 -0.382683 -1.5016
3.69552 0 -1.53073
4 0 0
3.62519 -0.382683 -1.5016
3.92388 -0.382683 0
2.7746 -0.382683 -2.7746
3.62519 -0.382683 -1.5016
2.62132 -0.707107 -2.62132
3.42492 -0.707107 -1.41865
3.62519 -0.382683 -1.5016
3.92388 -0.382683 0
3.42492 -0.707107 -1.41865
3.70711 -0.707107 0
2.62132 0.707107 -2.62132
3.42492 0.707107 -1.41865
2.7746 0.382683 -2.7746
3.62519 0.382683 -1.5016
3.42492 0.707107 -1.41865
3.70711 0.707107 0
3.62519 0.382683 -1.5016
3.92388 0.382683 0
2.7746 0.382683 -2.7746
3.62519 0.382683 -1.5016
2.82843 0 -2.82843
3.69552 0 -1.53073
3.62519 0.382683 -1.5016
3.92388 0.382683 0
3.69552 0 -1.53073
4 0 0
0 0 2
-0.765367 1.22465e-16 1.84776
1.27126e-16 0.382683 2.07612
-0.794497 0.382683 1.91809
-0.765367 1.22465e-16 1.84776
-1.41421 1.22465e-16 1.41421
-0.794497 0.382683 1.91809
-1.46804 0.382683 1.46804
1.27126e-16 0.382683 2.07612
-0.794497 0.382683 1.91809
1.40399e-16 0.707107 2.29289
-0.877452 0.707107 2.11836
-0.794497 0.382683 1.91809
-1.46804 0.382683 1.46804
-0.877452 0.707107 2.11836
-1.62132 0.707107 1.62132
1.40399e-16 0.707107 2.29289
-0.877452 0.707107 2.11836
1.60264e-16 0.92388 2.61732
-1.0016 0.92388 2.41809
-0.877452 0.707107 2.11836
-1.62132 0.707107 1.62132
-1.0016 0.92388 2.41809
-1.85072 0.92388 1.85072
1.60264e-16 0.92388 2.61732
-1.0016 0.92388 2.41809
0 1 3
-1.14805 1 2.77164
-1.0016 0.92388 2.41809
-1.85072 0.92388 1.85072
-1.14805 1 2.77164
-2.12132 1 2.12132
0 -1 3
-1.14805 -1 2.77164
1.60264e-16 -0.92388 2.61732
-1.0016 -0.92388 2.41809
-1.14805 -1 2.77164
-2.12132 -1 2.12132
-1.0016 -0.92388 2.41809
-1.85072 -0.92388 1.85072
1.60264e-16 -0.92388 2.61732
-1.0016 -0.92388 2.41809
1.40399e-16 -0.707107 2.29289
-0.877452 -0.707107 2.11836
-1.0016 -0.92388 2.41809
-1.85072 -0.92388 1.85072
-0.877452 -0.707107 2.11836
-1.62132 -0.707107 1.62132
1.40399e-16 -0.707107 2.29289
-0.877452 -0.707107 2.11836
1.27126e-16 -0.382683 2.07612
-0.794497 -0.382683 1.91809
-0.877452 -0.707107 2.11836
-1.62132 -0.707107 1.62132
-0.794497 -0.382683 1.91809
-1.46804 -0.382683 1.46804
1.27126e-16 -0.382683 2.07612
-0.794497 -0.382683 1.91809
0 0 2
-0.765367 1.22465e-16 1.84776
-0.794497 -0.382683 1.91809
-1.46804 -0.382683 1.46804
-0.765367 1.22465e-16 1.84776
-1.41421 1.22465e-16 1.41421
0 0 4
-1.53073 0 3.69552
2.40268e-16 -0.382683 3.92388
-1.5016 -0.382683 3.62519
-1.53073 0 3.69552
-2.82843 0 2.82843
-1.5016 -0.382683 3.62519
-2.7746 -0.382683 2.7746
2.40268e-16 -0.382683 3.92388
-1.5016 -0.382683 3.62519
2.26995e-16 -0.707107 3.70711
-1.41865 -0.707107 3.42492
-1.5016 -0.382683 3.62519
-2.7746 -0.382683 2.7746
-1.41865 -0.707107 3.42492
-2.62132 -0.707107 2.62132
2.26995e-16 -0.707107 3.70711
-1.41865 -0.707107 3.42492
2.0713e-16 -0.92388 3.38268
-1.2945 -0.92388 3.12519
-1.41865 -0.707107 3.42492
-2.62132 -0.707107 2.62132
-1.2945 -0.92388 3.12519
-2.39192 -0.92388 2.39192
2.0713e-16 -0.92388 3.38268
-1.2945 -0.92388 3.12519
0 -1 3
-1.14805 -1 2.77164
-1.2945 -0.92388 3.12519
-2.39192 -0.92388 2.39192
-1.14805 -1 2.77164
-2.12132 -1 2.12132
0 1 3
-1.14805 1 2.77164
2.0713e-16 0.92388 3.38268
-1.2945 0.92388 3.12519
-1.14805 1 2.77164
-2.12132 1 2.12132
-1.2945 0.92388 3.12519
-2.39192 0.92388 2.39192
2.0713e-16 0.92388 3.38268
-1.2945 0.92388 3.12519
2.26995e-16 0.707107 3.70711
-1.41865 0.707107 3.42492
-1.2945 0.92388 3.12519
-2.39192 0.92388 2.39192
-1.41865 0.707107 3.42492
-2.62132 0.707107 2.62132
2.26995e-16 0.707107 3.70711
-1.41865 0.707107 3.42492
2.40268e-16 0.382683 3.92388
-1.5016 0.382683 3.62519
-1.41865 0.707107 3.42492
-2.62132 0.707107 2.62132
-1.5016 0.382683 3.62519
-2.7746 0.382683 2.7746
2.40268e-16 0.382683 3.92388
-1.5016 0.382683 3.62519
0 0 4
-1.53073 0 3.69552
-1.5016 0.382683 3.62519
-2.7746 0.382683 2.7746
-1.53073 0 3.69552
-2.82843 0 2.82843
2.56703 0.92388 0.510613
2.41809 0.92388 1.0016
2.75101 0.980785 0.547211
2.5914 0.980785 1.07339
2.75101 0.980785 0.547211
2.5914 0.980785 1.07339
2.94236 1 0.585271
2.77164 1 1.14805
2.94236 -1 0.585271
2.77164 -1 1.14805
2.75101 -0.980785 0.547211
2.5914 -0.980785 1.07339
2.75101 -0.980785 0.547211
2.5914 -0.980785 1.07339
2.56703 -0.92388 0.510613
2.41809 -0.92388 1.0016
2.29289 0.707107 0
2.24884 0.707107 0.447321
2.44443 0.83147 0
2.39746 0.83147 0.476885
2.24884 0.707107 0.447321
2.11836 0.707107 0.877452
2.39746 0.83147 0.476885
2.25836 0.83147 0.935443
2.41809 0.92388 1.0016
2.17622 0.92388 1.4541
2.5914 0.980785 1.07339
2.3322 0.980785 1.55832
2.17622 0.92388 1.4541
1.85072 0.92388 1.85072
2.3322 0.980785 1.55832
1.98337 0.980785 1.98337
2.5914 0.980785 1.07339
2.3322 0.980785 1.55832
2.77164 1 1.14805
2.49441 1 1.66671
2.77164 -1 1.14805
2.49441 -1 1.66671
2.5914 -0.980785 1.07339
2.3322 -0.980785 1.55832
2.5914 -0.980785 1.07339
2.3322 -0.980785 1.55832
2.41809 -0.92388 1.0016
2.17622 -0.92388 1.4541
2.3322 -0.980785 1.55832
1.98337 -0.980785 1.98337
2.17622 -0.92388 1.4541
1.85072 -0.92388 1.85072
2.44443 -0.83147 0
2.39746 -0.83147 0.476885
2.29289 -0.707107 0
2.24884 -0.707107 0.447321
2.39746 -0.83147 0.476885
2.25836 -0.83147 0.935443
[...]
POINT_DATA 2152
SCALARS U double 1
LOOKUP_TABLE default
9.44246e-05 -2.49012e-05 9.53695e-05 -2.53134e-05 9.53695e-05 -2.53134e-05 4.20184e-05 -1.12876e-05 4.20184e-05 -1.12876e-05 9.53695e-05 -2.53134e-05 9.53695e-05 -2.53134e-05 9.44246e-05 -2.49012e-05 2.03396e-05 -5.51848e-06 7.46123e-05 -1.99441e-05 7.46123e-05 -1.99441e-05 4.20184e-05 -1.12876e-05 4.20184e-05 -1.12876e-05 7.46123e-05 -1.99441e-05 7.46123e-05 -1.99441e-05 2.03396e-05 -5.51848e-06 -2.49012e-05 6.94631e-06 -2.53134e-05 6.96141e-06 6.94631e-06 -4.1691e-06 6.96141e-06 -2.85668e-06 -2.53134e-05 6.96141e-06 -1.12876e-05 2.99184e-06 6.96141e-06 -2.85668e-06 2.99184e-06 -6.32347e-07 -1.12876e-05 2.99183e-06 -2.53134e-05 6.96142e-06 2.99183e-06 -6.32354e-07 6.96142e-06 -2.85668e-06 -2.53134e-05 6.96142e-06 -2.49012e-05 6.94631e-06 6.96142e-06 -2.85668e-06 6.94631e-06 -4.1691e-06 -5.51848e-06 1.5555e-06 -1.99441e-05 5.36679e-06 1.5555e-06 -6.57303e-07 5.36679e-06 -1.57266e-06 -1.99441e-05 5.36679e-06 -1.12876e-05 2.99183e-06 5.36679e-06 -1.57266e-06 2.99183e-06 -6.32354e-07 -1.12876e-05 2.99184e-06 -1.99441e-05 5.36681e-06 2.99184e-06 -6.32347e-07 5.36681e-06 -1.57276e-06 -1.99441e-05 5.36681e-06 -5.51848e-06 1.5555e-06 5.36681e-06 -1.57276e-06 1.5555e-06 -6.57303e-07 -4.1691e-06 1.33545e-05 -2.85668e-06 4.67745e-06 -2.85668e-06 4.67745e-06 -6.32347e-07 -5.15198e-07 -6.32354e-07 -5.1517e-07 -2.85668e-06 4.67744e-06 -2.85668e-06 4.67744e-06 -4.1691e-06 1.33545e-05 -6.57303e-07 1.0663e-06 -1.57266e-06 9.19188e-07 -1.57266e-06 9.19188e-07 -6.32354e-07 -5.1517e-07 -6.32347e-07 -5.15198e-07 -1.57276e-06 9.1955e-07 -1.57276e-06 9.1955e-07 -6.57303e-07 1.0663e-06 0.000827764 0.00119155 0.000891844 0.00163145 0.000891844 0.00163145 0.000827764 0.00119155 9.19188e-07 9.62292e-07 2.02009e-07 4.20574e-06 2.02009e-07 4.20574e-06 -5.1517e-07 -2.28976e-06 4.67745e-06 -2.75885e-05 2.08112e-06 4.10206e-06 2.08112e-06 4.10206e-06 -5.15198e-07 -2.28935e-06 -5.1517e-07 -2.28976e-06 2.08113e-06 4.10217e-06 2.08113e-06 4.10217e-06 4.67744e-06 -2.75885e-05 -5.15198e-07 -2.28935e-06 2.02176e-07 4.20458e-06 2.02176e-07 4.20458e-06 9.1955e-07 9.59864e-07 -1.61826e-05 -8.0818e-05 6.01456e-05 8.29103e-05 6.01448e-05 8.29134e-05 -1.61826e-05 -8.0818e-05 1.33545e-05 -0.000124313 9.01599e-06 -9.36772e-05 -0.000124313 0.000827764 -9.36772e-05 0.000891844 9.01599e-06 -9.36772e-05 4.67745e-06 -2.75885e-05 -9.36772e-05 0.000891844 -2.75885e-05 0.000796721 4.67744e-06 -2.75885e-05 9.01599e-06 -9.36772e-05 -2.75885e-05 0.000796721 -9.36772e-05 0.000891844 9.01599e-06 -9.36772e-05 1.33545e-05 -0.000124313 -9.36772e-05 0.000891844 -0.000124313 0.000827764 1.0663e-06 2.10459e-06 9.92746e-07 -1.07762e-05 2.10459e-06 -1.61826e-05 -1.07762e-05 6.01456e-05 9.92746e-07 -1.07762e-05 9.19188e-07 9.62292e-07 -1.07762e-05 6.01456e-05 9.62292e-07 0.000136863 9.1955e-07 9.59864e-07 9.92927e-07 -1.0776e-05 9.59864e-07 0.000136865 -1.0776e-05 6.01448e-05 9.92927e-07 -1.0776e-05 1.0663e-06 2.10459e-06 -1.0776e-05 6.01448e-05 2.10459e-06 -1.61826e-05 0.00157452 -0.000340459 0.00156787 -0.000342137 -0.000340459 9.44246e-05 -0.000342137 9.48971e-05 0.00156787 -0.000342137 0.00156525 -0.000340143 -0.000342137 9.48971e-05 -0.000340143 9.53695e-05 0.00156525 -0.000340143 0.00166497 -0.000301347 -0.000340143 9.53695e-05 -0.000301347 6.86939e-05 0.00166497 -0.000301347 0.00172596 -0.000256959 -0.000301347 6.86939e-05 -0.000256959 4.20184e-05 0.00172596 -0.000256959 0.00166497 -0.000301347 -0.000256959 4.20184e-05 -0.000301347 6.86939e-05 0.00166497 -0.000301347 0.00156525 -0.000340143 -0.000301347 6.86939e-05 -0.000340143 9.53695e-05 0.00156525 -0.000340143 0.00156787 -0.000342137 -0.000340143 9.53695e-05 -0.000342137 9.48971e-05 0.00156787 -0.000342137 0.00157452 -0.000340459 -0.000342137 9.48971e-05 -0.000340459 9.44246e-05 0.00179933 -0.000230628 0.00170155 -0.00026699 -0.000230628 2.03396e-05 -0.00026699 4.74759e-05 0.00170155 -0.00026699 0.00160499 -0.000305503 -0.00026699 4.74759e-05 -0.000305503 7.46123e-05 0.00160499 -0.000305503 0.00166621 -0.000281832 -0.000305503 7.46123e-05 -0.000281832 5.83153e-05 0.00166621 -0.000281832 0.00172596 -0.000256959 -0.000281832 5.83153e-05 -0.000256959 4.20184e-05 0.00172596 -0.000256959 0.00166621 -0.000281832 -0.000256959 4.20184e-05 -0.000281832 5.83153e-05 0.00166621 -0.000281832 0.00160499 -0.000305503 -0.000281832 5.83153e-05 -0.000305503 7.46123e-05 0.00160499 -0.000305503 0.00170155 -0.00026699 -0.000305503 7.46123e-05 -0.00026699 4.74759e-05 0.00170155 -0.00026699 0.00179933 -0.000230628 -0.00026699 4.74759e-05 -0.000230628 2.03396e-05 0.00129365 0.000654429 0.00110622 0.000524264 0.00110622 0.000524264 0.000912814 0.000528716 0.000912818 0.000528715 0.00110622 0.000524264 0.00110622 0.000524264 0.00129365 0.00065443 0.000796721 0.0015502 0.000722822 0.00145239 0.0015502 0.00143623 0.00145239 0.00100332 0.000654429 0.00096751 0.000524264 0.000907375 0.00096751 0.00145667 0.000907375 0.0019978 0.000524264 0.000907375 0.000528716 0.000848426 0.000528715 0.000848426 0.000524264 0.000907374 0.000524264 0.000907374 0.00065443 0.00096751 0.000907374 0.0019978 0.00096751 0.00145667 0.000722822 0.00145239 0.000796721 0.0015502 0.00145239 0.00100332 0.0015502 0.00143623 4.10206e-06 2.2245e-06 9.06351e-07 8.60314e-06 9.06351e-07 8.60314e-06 -2.28935e-06 -3.3037e-06 -2.28976e-06 -3.30367e-06 9.06206e-07 8.60312e-06 9.06206e-07 8.60312e-06 4.10217e-06 2.22448e-06 0.00143623 0.00122227 0.00100332 0.00105594 0.00122227 0.00125752 0.00105594 0.00103366 0.00100332 0.00105594 0.000654429 0.00096751 0.00065443 0.00096751 0.00100332 0.00105594 0.00100332 0.00105594 0.00143623 0.00122227 0.00105594 0.00103366 0.00122227 0.00125752 9.62292e-07 6.89128e-05 2.58402e-06 -1.33167e-05 6.89128e-05 0.000136863 -1.33167e-05 0.000331759 2.58402e-06 -1.33167e-05 4.20574e-06 -1.9861e-05 -1.33167e-05 0.000331759 -1.9861e-05 0.00046614 0.000136863 0.0010483 0.000331759 0.00098099 0.0010483 0.000242833 0.00098099 0.000492831 0.000331759 0.00098099 0.00046614 0.000772646 0.000539993 0.000813351 0.000516579 0.000864277 0.000813351 0.00127485 0.000864277 0.00190368 0.000516579 0.000864277 0.000528715 0.000848426 0.000528716 0.000848426 0.000516582 0.000864274 0.000516582 0.000864274 0.000540247 0.000813312 0.000864274 0.00190368 0.000813312 0.00127486 0.000466144 0.000773356 0.000331646 0.000981916 0.000331646 0.000981916 0.000136865 0.00104837 0.000981916 0.000493577 0.00104837 0.000242892 4.20458e-06 -1.98612e-05 2.58222e-06 -1.32893e-05 -1.98612e-05 0.000466144 -1.32893e-05 0.000331646 2.58222e-06 -1.32893e-05 9.59864e-07 6.89125e-05 -1.32893e-05 0.000331646 6.89125e-05 0.000136865 4.20574e-06 -1.9861e-05 9.57991e-07 8.69776e-07 -1.9861e-05 0.00046614 8.69776e-07 0.000513929 9.57991e-07 8.69776e-07 -2.28976e-06 -3.30367e-06 8.69776e-07 0.000513929 -3.30367e-06 0.000508113 -2.75885e-05 0.000384566 -1.17432e-05 9.47169e-05 0.000384566 0.000796721 9.47169e-05 0.000722822 -1.17432e-05 9.47169e-05 4.10206e-06 2.2245e-06 9.47169e-05 0.000722822 2.2245e-06 0.000588526 4.10217e-06 2.22448e-06 -1.17432e-05 9.47169e-05 2.22448e-06 0.000588526 9.47169e-05 0.000722822 -1.17432e-05 9.47169e-05 -2.75885e-05 0.000384566 9.47169e-05 0.000722822 0.000384566 0.000796721 -2.28935e-06 -3.3037e-06 9.57611e-07 8.65959e-07 -3.3037e-06 0.000508112 8.65959e-07 0.000513946 9.57611e-07 8.65959e-07 4.20458e-06 -1.98612e-05 8.65959e-07 0.000513946 -1.98612e-05 0.000466144 0.000891844 0.00126165 0.000844283 0.00153612 0.00126165 0.00163145 0.00153612 0.00167432 0.000844283 0.00153612 0.000796721 0.0015502 0.00153612 0.00167432 0.0015502 0.00143623 0.000242833 0.000575425 0.000492831 0.000709008 0.000492831 0.000709008 0.000539993 0.000813351 0.000540247 0.000813312 0.000493577 0.000708857 0.000493577 0.000708857 0.000242892 0.000575434 0.000796721 0.0015502 0.000844283 0.00153612 0.0015502 0.00143623 0.00153612 0.00167432 0.000844283 0.00153612 0.000891844 0.00126165 0.00153612 0.00167432 0.00126165 0.00163145 6.01456e-05 7.15279e-05 9.85045e-05 0.000714093 7.15279e-05 8.29103e-05 0.000714093 7.8516e-05 9.85045e-05 0.000714093 0.000136863 0.0010483 0.000714093 7.8516e-05 0.0010483 0.000242833 0.000136865 0.00104837 9.8505e-05 0.000714081 0.00104837 0.000242892 0.000714081 7.84997e-05 9.8505e-05 0.000714081 6.01448e-05 7.15291e-05 0.000714081 7.84997e-05 7.15291e-05 8.29134e-05 0.00193531 0.00185494 0.00162764 0.0017191 0.00185494 0.00156525 0.0017191 0.00161511 0.00162764 0.0017191 0.000787527 0.0015713 0.0017191 0.00161511 0.0015713 0.00166497 0.00145667 0.00126387 0.0019978 0.00136276 0.00126387 0.000787527 0.00136276 0.000282966 0.0019978 0.00136276 0.00226255 0.00131805 0.00136276 0.000282966 0.00131805 0.000282586 0.000787527 0.0015713 0.000282966 0.00123189 0.0015713 0.00166497 0.00123189 0.00169547 0.000282966 0.00123189 0.000282586 0.000142961 0.00123189 0.00169547 0.000142961 0.00172596 0.00119155 0.00122356 0.0014115 0.001282 0.00122356 0.00206635 0.001282 0.00212689 0.0014115 0.001282 0.00163145 0.00141584 0.00163145 0.00141584 0.00167432 0.00140988 0.00167432 0.00140988 0.00143623 0.00122227 0.00140988 0.00174923 0.00122227 0.00125752 0.00143623 0.00122227 0.00167432 0.00140988 0.00122227 0.00125752 0.00140988 0.00174923 0.00167432 0.00140988 0.00163145 0.00141584 0.00226255 0.00131805 0.0019978 0.00136276 0.00131805 0.000282586 0.00136276 0.000282966 0.0019978 0.00136276 0.00145667 0.00126387 0.00136276 0.000282966 0.00126387 0.000787527 0.00163145 0.00141584 0.0014115 0.001282 0.0014115 0.001282 0.00119155 0.00122356 0.001282 0.00212689 0.00122356 0.00206635 0.000282586 0.000142961 0.000282966 0.00123189 0.000142961 0.00172596 0.00123189 0.00169547 0.000282966 0.00123189 0.000787527 0.0015713 0.00123189 0.00169547 0.0015713 0.00166497 -8.0818e-05 0.000422442 1.04613e-06 0.00041255 1.04613e-06 0.00041255 8.29103e-05 0.000433688 8.29103e-05 0.000433688 7.8516e-05 0.00050968 7.8516e-05 0.00050968 0.000242833 0.000575425 0.00050968 0.00186229 0.000575425 0.00128997 0.00123175 0.00104186 0.0012059 0.00116181 0.0012059 0.00116181 0.00123117 0.00106036 0.00123117 0.00106036 0.0012059 0.00116181 0.0012059 0.00116181 0.00123175 0.00104186 0.000242892 0.000575434 7.84997e-05 0.000509683 0.000575434 0.00128996 0.000509683 0.00186229 7.84997e-05 0.000509683 8.29134e-05 0.000433687 0.000787527 0.0015713 0.00162764 0.0017191 0.0015713 0.00166497 0.0017191 0.00161511 0.00162764 0.0017191 0.00193531 0.00185494 0.0017191 0.00161511 0.00185494 0.00156525 8.29134e-05 0.000433687 1.04767e-06 0.00041255 1.04767e-06 0.00041255 -8.0818e-05 0.000422442 0.00104186 0.00036939 0.00116181 0.000433616 0.00036939 0.00160499 0.000433616 0.0016356 0.00116181 0.000433616 0.00106036 0.000413115 0.000433616 0.0016356 0.000413115 0.00166621 0.00127485 0.00123117 0.00190368 0.00127611 0.00123117 0.00106036 0.00127611 0.000643444 0.00190368 0.00127611 0.00226255 0.00131805 0.00127611 0.000643444 0.00131805 0.000282586 0.00106036 0.000413115 0.000643444 0.000183439 0.000413115 0.00166621 0.000183439 0.00169608 0.000643444 0.000183439 0.000282586 0.000142961 0.000183439 0.00169608 0.000142961 0.00172596 0.00226255 0.00131805 0.00190368 0.00127611 0.00131805 0.000282586 0.00127611 0.000643444 0.00190368 0.00127611 0.00127486 0.00123117 0.00127611 0.000643444 0.00123117 0.00106036 0.000282586 0.000142961 0.000643444 0.000183439 0.000142961 0.00172596 0.000183439 0.00169608 0.000643444 0.000183439 0.00106036 0.000413115 0.000183439 0.00169608 0.000413115 0.00166621 0.00106036 0.000413115 0.00116181 0.000433616 0.000413115 0.00166621 0.000433616 0.0016356 0.00116181 0.000433616 0.00104186 0.00036939 0.000433616 0.0016356 0.00036939 0.00160499 0.00206635 0.00185031 0.00212689 0.00186964 0.00185031 0.001915 0.00186964 0.00189794 0.00212689 0.00186964 0.00211222 0.00184413 0.00186964 0.00189794 0.00184413 0.00189048 0.001915 0.00181734 0.00189794 0.00180774 0.00181734 0.00157452 0.00180774 0.0015712 0.00189794 0.00180774 0.00189048 0.00180583 0.00180774 0.0015712 0.00180583 0.00156787 0.00211222 0.00184413 0.00174923 0.0016688 0.00184413 0.00189048 0.0016688 0.00194281 0.00174923 0.0016688 0.00125752 0.00137187 0.0016688 0.00194281 0.00137187 0.00193531 0.00189048 0.00180583 0.00194281 0.00184168 0.00180583 0.00156787 0.00184168 0.00156656 0.00194281 0.00184168 0.00193531 0.00185494 0.00184168 0.00156656 0.00185494 0.00156525 0.00125752 0.00137187 0.00174923 0.0016688 0.00137187 0.00193531 0.0016688 0.00194281 0.00174923 0.0016688 0.00211222 0.00184413 0.0016688 0.00194281 0.00184413 0.00189048 0.00193531 0.00185494 0.00194281 0.00184168 0.00185494 0.00156525 0.00184168 0.00156656 0.00194281 0.00184168 0.00189048 0.00180583 0.00184168 0.00156656 0.00180583 0.00156787 0.00211222 0.00184413 0.00212689 0.00186964 0.00184413 0.00189048 0.00186964 0.00189794 0.00212689 0.00186964 0.00206635 0.00185031 0.00186964 0.00189794 0.00185031 0.001915 0.00189048 0.00180583 0.00189794 0.00180774 0.00180583 0.00156787 0.00180774 0.0015712 0.00189794 0.00180774 0.001915 0.00181734 0.00180774 0.0015712 0.00181734 0.00157452 0.00218149 0.00129281 0.00225034 0.00129961 0.00129281 0.000381819 0.00129961 0.000320309 0.00225034 0.00129961 0.00223509 0.00129996 0.00129961 0.000320309 0.00129996 0.000336173 0.000381819 0.000116225 0.000320309 7.25734e-05 0.000116225 0.00179933 7.25734e-05 0.00175044 0.000320309 7.25734e-05 0.000336173 4.97123e-05 7.25734e-05 0.00175044 4.97123e-05 0.00170155 0.00223509 0.00129996 0.00186229 0.00126943 0.00129996 0.000336173 0.00126943 0.000676045 0.00186229 0.00126943 0.00128997 0.00123175 0.00126943 0.000676045 0.00123175 0.00104186 0.000336173 4.97123e-05 0.000676045 0.000194764 4.97123e-05 0.00170155 0.000194764 0.00165327 0.000676045 0.000194764 0.00104186 0.00036939 0.000194764 0.00165327 0.00036939 0.00160499 0.00128996 0.00123175 0.00186229 0.00126943 0.00123175 0.00104186 0.00126943 0.000676045 0.00186229 0.00126943 0.00223509 0.00129996 0.00126943 0.000676045 0.00129996 0.000336173 0.00104186 0.00036939 0.000676045 0.000194764 0.00036939 0.00160499 0.000194764 0.00165327 0.000676045 0.000194764 0.000336173 4.97123e-05 0.000194764 0.00165327 4.97123e-05 0.00170155 0.00223509 0.00129996 0.00225034 0.00129961 0.00129996 0.000336173 0.00129961 0.000320309 0.00225034 0.00129961 0.00218149 0.00129281 0.00129961 0.000320309 0.00129281 0.000381819 0.000336173 4.97123e-05 0.000320309 7.25734e-05 4.97123e-05 0.00170155 7.25734e-05 0.00175044 0.000320309 7.25734e-05 0.000381819 0.000116225 7.25734e-05 0.00175044 0.000116225 0.00179933 0.000588526 0.0010486 0.000564298 0.00100181 0.0010486 0.00129365 0.00100181 0.00119993 0.000564298 0.00100181 0.000540319 0.000947644 0.00100181 0.00119993 0.000947644 0.00110622 0.000907375 0.00145259 0.0008779 0.00156462 0.00145259 0.0019978 0.00156462 0.00213018 0.0008779 0.00156462 0.000848426 0.00157837 0.00156462 0.00213018 0.00157837 0.00226255 0.000540319 0.000947644 0.000525318 0.000887813 0.000947644 0.00110622 0.000887813 0.00100951 0.000525318 0.000887813 0.000508112 0.000829047 0.000887813 0.00100951 0.000829047 0.000912814 0.000848426 0.00157837 0.0008779 0.00156462 0.00157837 0.00226255 0.00156462 0.00213018 0.0008779 0.00156462 0.000907374 0.00145259 0.00156462 0.00213018 0.00145259 0.0019978 0.000508113 0.000829048 0.000525318 0.000887813 0.000829048 0.000912818 0.000887813 0.00100952 0.000525318 0.000887813 0.000540319 0.000947644 0.000887813 0.00100952 0.000947644 0.00110622 0.00105594 0.0010448 0.00101172 0.00110381 0.0010448 0.00103366 0.00110381 0.00117845 0.00101172 0.00110381 0.00096751 0.00121209 0.00110381 0.00117845 0.00121209 0.00145667 0.000540319 0.000947644 0.000564298 0.00100181 0.000947644 0.00110622 0.00100181 0.00119993 0.000564298 0.00100181 0.000588526 0.0010486 0.00100181 0.00119993 0.0010486 0.00129365 0.00096751 0.00121209 0.00101172 0.00110381 0.00121209 0.00145667 0.00110381 0.00117845 0.00101172 0.00110381 0.00105594 0.0010448 0.00110381 0.00117845 0.0010448 0.00103366 0.000722822 0.00108761 0.000655674 0.00108158 0.00108761 0.00145239 0.00108158 0.0013609 0.000655674 0.00108158 0.000588526 0.0010486 0.00108158 0.0013609 0.0010486 0.00129365 0.000864277 0.00138398 0.000856352 0.00153327 0.00138398 0.00190368 0.00153327 0.00208312 0.000856352 0.00153327 0.000848426 0.00157837 0.00153327 0.00208312 0.00157837 0.00226255 0.000588526 0.0010486 0.000655674 0.00108158 0.0010486 0.00129365 0.00108158 0.0013609 0.000655674 0.00108158 0.000722822 0.00108761 0.00108158 0.0013609 0.00108761 0.00145239 0.000848426 0.00157837 0.00085635 0.00153327 0.00157837 0.00226255 0.00153327 0.00208312 0.00085635 0.00153327 0.000864274 0.00138398 0.00153327 0.00208312 0.00138398 0.00190368 0.001282 0.00170444 0.00134892 0.0017493 0.00170444 0.00212689 0.0017493 0.00211955 0.00134892 0.0017493 0.00141584 0.00174083 0.0017493 0.00211955 0.00174083 0.00211222 0.00141584 0.00174083 0.00141286 0.00169793 0.00174083 0.00211222 0.00169793 0.00193072 0.00141286 0.00169793 0.00140988 0.00157955 0.00169793 0.00193072 0.00157955 0.00174923 0.00046614 0.000619393 0.000490035 0.000665052 0.000619393 0.000772646 0.000665052 0.000720921 0.000490035 0.000665052 0.000513929 0.00071888 0.000665052 0.000720921 0.00071888 0.000735424 0.000772646 0.000845666 0.000720921 0.000840395 0.000845666 0.000539993 0.000840395 0.000528286 0.000720921 0.000840395 0.000735424 0.000815252 0.000840395 0.000528286 0.000815252 0.000516579 0.000513929 0.00071888 0.000511021 0.000775329 0.00071888 0.000735424 0.000775329 0.000801998 0.000511021 0.000775329 0.000508113 0.000829048 0.000775329 0.000801998 0.000829048 0.000912818 0.000735424 0.000815252 0.000801998 0.000772275 0.000815252 0.000516579 0.000772275 0.000522647 0.000801998 0.000772275 0.000912818 0.000720766 0.000772275 0.000522647 0.000720766 0.000528715 0.000508112 0.000829047 0.000511029 0.00077534 0.000829047 0.000912814 0.00077534 0.00080201 0.000511029 0.00077534 0.000513946 0.000718951 0.00077534 0.00080201 0.000718951 0.00073555 0.000912814 0.000720765 0.00080201 0.000772264 0.000720765 0.000528716 0.000772264 0.000522649 0.00080201 0.000772264 0.00073555 0.000815383 0.000772264 0.000522649 0.000815383 0.000516582 0.000513946 0.000718951 0.000490045 0.000665249 0.000718951 0.00073555 0.000665249 0.000721327 0.000490045 0.000665249 0.000466144 0.00061975 0.000665249 0.000721327 0.00061975 0.000773356 0.00073555 0.000815383 0.000721327 0.000841185 0.000815383 0.000516582 0.000841185 0.000528415 0.000721327 0.000841185 0.000773356 0.000847476 0.000841185 0.000528415 0.000847476 0.000540247 2.2245e-06 0.000295375 5.41382e-06 0.000216161 0.000295375 0.000588526 0.000216161 0.000564298 5.41382e-06 0.000216161 8.60314e-06 0.00018106 0.000216161 0.000564298 0.00018106 0.000540319 8.60314e-06 0.00018106 2.64972e-06 0.000196862 0.00018106 0.000540319 0.000196862 0.000525318 2.64972e-06 0.000196862 -3.3037e-06 0.000252404 0.000196862 0.000525318 0.000252404 0.000508112 -3.30367e-06 0.000252405 2.64973e-06 0.000196862 0.000252405 0.000508113 0.000196862 0.000525318 2.64973e-06 0.000196862 8.60312e-06 0.00018106 0.000196862 0.000525318 0.00018106 0.000540319 8.60312e-06 0.00018106 5.4138e-06 0.000216161 0.00018106 0.000540319 0.000216161 0.000564298 5.4138e-06 0.000216161 2.22448e-06 0.000295375 0.000216161 0.000564298 0.000295375 0.000588526 0.00140988 0.00157955 0.00141286 0.00169793 0.00157955 0.00174923 0.00169793 0.00193072 0.00141286 0.00169793 0.00141584 0.00174083 0.00169793 0.00193072 0.00174083 0.00211222 0.00141584 0.00174083 0.00134892 0.0017493 0.00174083 0.00211222 0.0017493 0.00211955 0.00134892 0.0017493 0.001282 0.00170444 0.0017493 0.00211955 0.00170444 0.00212689 0.00125752 0.00131469 0.00114559 0.00113896 0.00131469 0.00137187 0.00113896 0.0012443 0.00114559 0.00113896 0.00103366 0.00109683 0.00113896 0.0012443 0.00109683 0.00115175 0.00137187 0.00165359 0.0012443 0.0014345 0.00165359 0.00193531 0.0014345 0.00178148 0.0012443 0.0014345 0.00115175 0.00124964 0.0014345 0.00178148 0.00124964 0.00162764 0.00103366 0.00109683 0.00117845 0.00119154 0.00109683 0.00115175