# vtk DataFile Version 3.0
#This file was generated by the deal.II library on 2023/3/1 at 4:17:43
ASCII
DATASET UNSTRUCTURED_GRID

FIELD FieldData 2
CYCLE 1 1 int
214
TIME 1 1 double
0.428
POINTS 9316 double
-0.877452 0.707107 -2.11836
-4.21198e-16 0.707107 -2.29289
-1.0016 0.92388 -2.41809
-4.80793e-16 0.92388 -2.61732
-2.12132 -1 -2.12132
-1.14805 -1 -2.77164
-1.85072 -0.92388 -1.85072
-1.0016 -0.92388 -2.41809
-1.41421 1.22465e-16 -1.41421
-0.765367 1.22465e-16 -1.84776
-1.46804 0.382683 -1.46804
-0.794497 0.382683 -1.91809
-1.46804 0.382683 -1.46804
-0.794497 0.382683 -1.91809
-1.62132 0.707107 -1.62132
-0.877452 0.707107 -2.11836
-0.794497 0.382683 -1.91809
-3.81377e-16 0.382683 -2.07612
-0.877452 0.707107 -2.11836
-4.21198e-16 0.707107 -2.29289
-1.46804 -0.382683 -1.46804
-0.794497 -0.382683 -1.91809
-1.41421 1.22465e-16 -1.41421
-0.765367 1.22465e-16 -1.84776
-2.7746 -0.382683 -2.7746
-1.5016 -0.382683 -3.62519
-2.62132 -0.707107 -2.62132
-1.41865 -0.707107 -3.42492
-1.2945 -0.92388 -3.12519
-6.21389e-16 -0.92388 -3.38268
-1.14805 -1 -2.77164
0 -1 -3
-2.12132 1 -2.12132
-1.14805 1 -2.77164
-2.39192 0.92388 -2.39192
-1.2945 0.92388 -3.12519
-1.14805 1 -2.77164
0 1 -3
-1.2945 0.92388 -3.12519
-6.21389e-16 0.92388 -3.38268
-1.2945 0.92388 -3.12519
-6.21389e-16 0.92388 -3.38268
-1.41865 0.707107 -3.42492
-6.80984e-16 0.707107 -3.70711
-3.70711 0.707107 4.5399e-16
-3.42492 0.707107 -1.41865
-3.92388 0.382683 4.80537e-16
-3.62519 0.382683 -1.5016
-3.42492 0.707107 -1.41865
-2.62132 0.707107 -2.62132
-3.62519 0.382683 -1.5016
-2.7746 0.382683 -2.7746
-2.62132 0.707107 -2.62132
-1.41865 0.707107 -3.42492
-2.7746 0.382683 -2.7746
-1.5016 0.382683 -3.62519
-0.794497 0.382683 1.91809
-1.46804 0.382683 1.46804
-0.877452 0.707107 2.11836
-1.62132 0.707107 1.62132
-1.0016 -0.92388 2.41809
-1.85072 -0.92388 1.85072
-0.877452 -0.707107 2.11836
-1.62132 -0.707107 1.62132
-1.5016 -0.382683 3.62519
-2.7746 -0.382683 2.7746
-1.41865 -0.707107 3.42492
-2.62132 -0.707107 2.62132
-1.14805 1 2.77164
-2.12132 1 2.12132
-1.2945 0.92388 3.12519
-2.39192 0.92388 2.39192
-1.62132 0.707107 1.62132
-2.11836 0.707107 0.877452
-1.85072 0.92388 1.85072
-2.41809 0.92388 1.0016
-2.11836 0.707107 0.877452
-2.29289 0.707107 2.80798e-16
-2.41809 0.92388 1.0016
-2.61732 0.92388 3.20529e-16
-2.77164 -1 1.14805
-3 -1 0
-2.41809 -0.92388 1.0016
-2.61732 -0.92388 3.20529e-16
-1.85072 -0.92388 1.85072
-2.41809 -0.92388 1.0016
-1.62132 -0.707107 1.62132
-2.11836 -0.707107 0.877452
-1.62132 -0.707107 1.62132
-2.11836 -0.707107 0.877452
-1.46804 -0.382683 1.46804
-1.91809 -0.382683 0.794497
-2.82843 0 2.82843
-3.69552 0 1.53073
-2.7746 -0.382683 2.7746
-3.62519 -0.382683 1.5016
-2.7746 -0.382683 2.7746
-3.62519 -0.382683 1.5016
-2.62132 -0.707107 2.62132
-3.42492 -0.707107 1.41865
-3.12519 -0.92388 1.2945
-3.38268 -0.92388 4.14259e-16
-2.77164 -1 1.14805
-3 -1 0
-2 0 0
-1.84776 1.22465e-16 -0.765367
-2.07612 0.382683 2.54251e-16
-1.91809 0.382683 -0.794497
-2.07612 0.382683 2.54251e-16
-1.91809 0.382683 -0.794497
-2.29289 0.707107 2.80798e-16
-2.11836 0.707107 -0.877452
-1.91809 0.382683 -0.794497
-1.46804 0.382683 -1.46804
-2.11836 0.707107 -0.877452
-1.62132 0.707107 -1.62132
-2.11836 0.707107 -0.877452
-1.62132 0.707107 -1.62132
-2.41809 0.92388 -1.0016
-1.85072 0.92388 -1.85072
-2.61732 0.92388 3.20529e-16
-2.41809 0.92388 -1.0016
-3 1 0
-2.77164 1 -1.14805
-2.07612 -0.382683 2.54251e-16
-1.91809 -0.382683 -0.794497
-2 0 0
-1.84776 1.22465e-16 -0.765367
-1.91809 -0.382683 -0.794497
-1.46804 -0.382683 -1.46804
-1.84776 1.22465e-16 -0.765367
-1.41421 1.22465e-16 -1.41421
-3.42492 -0.707107 -1.41865
-2.62132 -0.707107 -2.62132
-3.12519 -0.92388 -1.2945
-2.39192 -0.92388 -2.39192
0 0 -2
0.765367 1.22465e-16 -1.84776
-3.81377e-16 0.382683 -2.07612
0.794497 0.382683 -1.91809
-3.81377e-16 0.382683 -2.07612
0.794497 0.382683 -1.91809
-4.21198e-16 0.707107 -2.29289
0.877452 0.707107 -2.11836
-4.21198e-16 0.707107 -2.29289
0.877452 0.707107 -2.11836
-4.80793e-16 0.92388 -2.61732
1.0016 0.92388 -2.41809
1.0016 0.92388 -2.41809
1.85072 0.92388 -1.85072
1.14805 1 -2.77164
2.12132 1 -2.12132
0 -1 -3
1.14805 -1 -2.77164
-4.80793e-16 -0.92388 -2.61732
1.0016 -0.92388 -2.41809
-3.81377e-16 -0.382683 -2.07612
0.794497 -0.382683 -1.91809
0 0 -2
0.765367 1.22465e-16 -1.84776
2.29289 0.707107 0
2.24884 0.707107 0.447321
2.44443 0.83147 0
2.39746 0.83147 0.476885
2.24884 0.707107 0.447321
2.11836 0.707107 0.877452
2.39746 0.83147 0.476885
2.25836 0.83147 0.935443
2.44443 0.83147 0
2.39746 0.83147 0.476885
2.61732 0.92388 0
2.56703 0.92388 0.510613
2.41809 0.92388 1.0016
2.17622 0.92388 1.4541
2.5914 0.980785 1.07339
2.3322 0.980785 1.55832
2.5914 0.980785 1.07339
2.3322 0.980785 1.55832
2.77164 1 1.14805
2.49441 1 1.66671
2.56703 -0.92388 0.510613
2.41809 -0.92388 1.0016
2.39746 -0.83147 0.476885
2.25836 -0.83147 0.935443
-1.62132 0.707107 -1.62132
-1.27386 0.707107 -1.90647
-1.72847 0.83147 -1.72847
-1.35805 0.83147 -2.03247
-1.27386 0.707107 -1.90647
-0.877452 0.707107 -2.11836
-1.35805 0.83147 -2.03247
-0.935443 0.83147 -2.25836
-1.72847 0.83147 -1.72847
-1.35805 0.83147 -2.03247
-1.85072 0.92388 -1.85072
-1.4541 0.92388 -2.17622
-1.35805 0.83147 -2.03247
-0.935443 0.83147 -2.25836
-1.4541 0.92388 -2.17622
-1.0016 0.92388 -2.41809
-3.62519 -0.382683 -1.5016
-3.26259 -0.382683 -2.17999
-3.53982 -0.55557 -1.46624
-3.18575 -0.55557 -2.12865
-3.26259 -0.382683 -2.17999
-2.7746 -0.382683 -2.7746
-3.18575 -0.55557 -2.12865
-2.70926 -0.55557 -2.70926
-3.53982 -0.55557 -1.46624
-3.18575 -0.55557 -2.12865
-3.42492 -0.707107 -1.41865
-3.08235 -0.707107 -2.05956
-3.18575 -0.55557 -2.12865
-2.70926 -0.55557 -2.70926
-3.08235 -0.707107 -2.05956
-2.62132 -0.707107 -2.62132
-3.32588 0 -2.22228
-2.82843 0 -2.82843
-3.3099 -0.19509 -2.21161
-2.81484 -0.19509 -2.81484
-3.3099 -0.19509 -2.21161
-2.81484 -0.19509 -2.81484
-3.26259 -0.382683 -2.17999
-2.7746 -0.382683 -2.7746
2.41809 -0.92388 1.0016
2.17622 -0.92388 1.4541
2.25836 -0.83147 0.935443
2.03247 -0.83147 1.35805
2.17622 -0.92388 1.4541
1.85072 -0.92388 1.85072
2.03247 -0.83147 1.35805
1.72847 -0.83147 1.72847
2.25836 -0.83147 0.935443
2.03247 -0.83147 1.35805
2.11836 -0.707107 0.877452
1.90647 -0.707107 1.27386
2.03247 -0.83147 1.35805
1.72847 -0.83147 1.72847
1.90647 -0.707107 1.27386
1.62132 -0.707107 1.62132
-1.85072 0.92388 -1.85072
-1.4541 0.92388 -2.17622
-1.98337 0.980785 -1.98337
-1.55832 0.980785 -2.3322
-1.4541 0.92388 -2.17622
-1.0016 0.92388 -2.41809
-1.55832 0.980785 -2.3322
-1.07339 0.980785 -2.5914
-1.98337 0.980785 -1.98337
-1.55832 0.980785 -2.3322
-2.12132 1 -2.12132
-1.66671 1 -2.49441
-1.55832 0.980785 -2.3322
-1.07339 0.980785 -2.5914
-1.66671 1 -2.49441
-1.14805 1 -2.77164
2.49441 1 1.66671
2.12132 1 2.12132
2.65662 0.980785 1.7751
2.25927 0.980785 2.25927
-4 0 0
-3.92314 0 -0.780361
-3.98079 -0.19509 4.87506e-16
-3.9043 -0.19509 -0.776613
-3.92314 0 -0.780361
-3.69552 0 -1.53073
-3.9043 -0.19509 -0.776613
-3.67777 -0.19509 -1.52338
-1.14805 -1 -2.77164
-0.585271 -1 -2.94236
-1.07339 -0.980785 -2.5914
-0.547211 -0.980785 -2.75101
-0.585271 -1 -2.94236
0 -1 -3
-0.547211 -0.980785 -2.75101
-5.15254e-16 -0.980785 -2.80491
-1.07339 -0.980785 -2.5914
-0.547211 -0.980785 -2.75101
-1.0016 -0.92388 -2.41809
-0.510613 -0.92388 -2.56703
-0.547211 -0.980785 -2.75101
-5.15254e-16 -0.980785 -2.80491
-0.510613 -0.92388 -2.56703
-4.80793e-16 -0.92388 -2.61732
-1.85072 -0.92388 -1.85072
-1.4541 -0.92388 -2.17622
-1.72847 -0.83147 -1.72847
-1.35805 -0.83147 -2.03247
-1.4541 -0.92388 -2.17622
-1.0016 -0.92388 -2.41809
-1.35805 -0.83147 -2.03247
-0.935443 -0.83147 -2.25836
-1.72847 -0.83147 -1.72847
-1.35805 -0.83147 -2.03247
-1.62132 -0.707107 -1.62132
-1.27386 -0.707107 -1.90647
-1.35805 -0.83147 -2.03247
-0.935443 -0.83147 -2.25836
-1.27386 -0.707107 -1.90647
-0.877452 -0.707107 -2.11836
-1.27386 -0.707107 -1.90647
-0.877452 -0.707107 -2.11836
-1.20477 -0.55557 -1.80307
-0.829861 -0.55557 -2.00346
-1.53338 -0.55557 -1.53338
-1.20477 -0.55557 -1.80307
-1.46804 -0.382683 -1.46804
-1.15343 -0.382683 -1.72623
-1.20477 -0.55557 -1.80307
-0.829861 -0.55557 -2.00346
-1.15343 -0.382683 -1.72623
-0.794497 -0.382683 -1.91809
-1.0016 -0.92388 -2.41809
-0.510613 -0.92388 -2.56703
-0.935443 -0.83147 -2.25836
-0.476885 -0.83147 -2.39746
-0.510613 -0.92388 -2.56703
-4.80793e-16 -0.92388 -2.61732
-0.476885 -0.83147 -2.39746
-4.49034e-16 -0.83147 -2.44443
-0.935443 -0.83147 -2.25836
-0.476885 -0.83147 -2.39746
-0.877452 -0.707107 -2.11836
-0.447321 -0.707107 -2.24884
-0.476885 -0.83147 -2.39746
-4.49034e-16 -0.83147 -2.44443
-0.447321 -0.707107 -2.24884
-4.21198e-16 -0.707107 -2.29289
-0.765367 1.22465e-16 -1.84776
-0.390181 1.22465e-16 -1.96157
-0.77272 0.19509 -1.86551
-0.393929 0.19509 -1.98042
-0.390181 1.22465e-16 -1.96157
0 0 -2
-0.393929 0.19509 -1.98042
-3.70924e-16 0.19509 -2.01921
-0.77272 0.19509 -1.86551
-0.393929 0.19509 -1.98042
-0.794497 0.382683 -1.91809
-0.405031 0.382683 -2.03623
-0.393929 0.19509 -1.98042
-3.70924e-16 0.19509 -2.01921
-0.405031 0.382683 -2.03623
-3.81377e-16 0.382683 -2.07612
-0.794497 -0.382683 -1.91809
-0.405031 -0.382683 -2.03623
-0.77272 -0.19509 -1.86551
-0.393929 -0.19509 -1.98042
-0.405031 -0.382683 -2.03623
-3.81377e-16 -0.382683 -2.07612
-0.393929 -0.19509 -1.98042
-3.70924e-16 -0.19509 -2.01921
-0.77272 -0.19509 -1.86551
-0.393929 -0.19509 -1.98042
-0.765367 1.22465e-16 -1.84776
-0.390181 1.22465e-16 -1.96157
-0.393929 -0.19509 -1.98042
-3.70924e-16 -0.19509 -2.01921
-0.390181 1.22465e-16 -1.96157
0 0 -2
-2.62132 -0.707107 -2.62132
-2.05956 -0.707107 -3.08235
-2.51417 -0.83147 -2.51417
-1.97537 -0.83147 -2.95635
-2.05956 -0.707107 -3.08235
-1.41865 -0.707107 -3.42492
-1.97537 -0.83147 -2.95635
-1.36066 -0.83147 -3.28492
-2.51417 -0.83147 -2.51417
-1.97537 -0.83147 -2.95635
-2.39192 -0.92388 -2.39192
-1.87932 -0.92388 -2.8126
-1.97537 -0.83147 -2.95635
-1.36066 -0.83147 -3.28492
-1.87932 -0.92388 -2.8126
-1.2945 -0.92388 -3.12519
3.63588 0.707107 0.723221
3.42492 0.707107 1.41865
[...]
POINT_DATA 9316
SCALARS U double 1
LOOKUP_TABLE default
0.00570391 0.00585964 0.00550209 0.00564751 0.00414438 0.00495357 0.00450339 0.0051968 0.00503871 0.00580493 0.00486439 0.00581272 0.00486439 0.00581272 0.00460044 0.00570391 0.00581272 0.00594997 0.00570391 0.00585964 0.00501534 0.00576869 0.00503871 0.00580493 0.00388169 0.00450527 0.00383089 0.0046105 0.00475474 0.00449438 0.00495357 0.0047591 0.0041367 0.00520961 0.00388858 0.00493553 0.00520961 0.00521254 0.00493553 0.00470442 0.00493553 0.00470442 0.00466691 0.00445212 0.00205269 0.0024857 0.00198239 0.00234253 0.0024857 0.00374063 0.00234253 0.00378187 0.00374063 0.00466691 0.00378187 0.00452607 0.00524911 0.00484481 0.00487451 0.00426988 0.00442158 0.00336866 0.00486079 0.00390313 0.00348464 0.00279866 0.00346654 0.00278895 0.00401773 0.00311177 0.00373042 0.00281752 0.00426988 0.00460874 0.00360618 0.00379523 0.00460874 0.00494328 0.00379523 0.00404454 0.00346223 0.00371034 0.00382684 0.00442374 0.00336866 0.00382684 0.00390313 0.00440488 0.00390313 0.00440488 0.00452751 0.00496546 0.00277035 0.00229077 0.00279866 0.00243523 0.00279866 0.00243523 0.00278895 0.00277089 0.00319078 0.00310873 0.00346223 0.00371034 0.00566838 0.00545021 0.00547606 0.00512487 0.00547606 0.00512487 0.00494328 0.0046969 0.00512487 0.00486439 0.0046969 0.00460044 0.0046969 0.00460044 0.00428826 0.00437879 0.00404454 0.00428826 0.00306027 0.00371759 0.00559394 0.00559827 0.00566838 0.00545021 0.00559827 0.00501534 0.00545021 0.00503871 0.00277568 0.00383089 0.00354478 0.00387136 0.00591177 0.0051728 0.00594997 0.00513045 0.00594997 0.00513045 0.00585964 0.00490261 0.00585964 0.00490261 0.00564751 0.00454251 0.00454251 0.00354653 0.0042548 0.00305011 0.0047591 0.00416512 0.00515421 0.0045432 0.00586709 0.00509126 0.00591177 0.0051728 0.00529198 0.00609362 0.00475761 0.00577685 0.00609362 0.00654046 0.00577685 0.00616073 0.00475761 0.00577685 0.00416124 0.00540522 0.00554856 0.00558685 0.00493265 0.00499518 0.00493265 0.00499518 0.00439284 0.00457028 0.00502529 0.00544714 0.00518535 0.00523352 0.00460044 0.00515217 0.00448962 0.00504232 0.00515217 0.00570391 0.00504232 0.005603 0.00448962 0.00504232 0.00437879 0.00492971 0.00504232 0.005603 0.00492971 0.00550209 0.00233192 0.00321883 0.00249831 0.00324025 0.00321883 0.00388169 0.00324025 0.00385629 0.00249831 0.00324025 0.00277568 0.00330328 0.00324025 0.00385629 0.00330328 0.00383089 0.00326918 0.00383823 0.00324229 0.0038567 0.00324229 0.0038567 0.00321883 0.00388169 0.00544714 0.00552396 0.00523352 0.00538432 0.00552396 0.00521398 0.00538432 0.00530566 0.00523352 0.00538432 0.00522374 0.00542527 0.00538432 0.00530566 0.00542527 0.00547726 0.00437879 0.00492971 0.00426345 0.00480852 0.00492971 0.00550209 0.00480852 0.00534696 0.00426345 0.00480852 0.0041367 0.00467315 0.00480852 0.00534696 0.00467315 0.00520961 0.00457028 0.00525283 0.00448304 0.00503238 0.00195628 0.00213708 0.00198347 0.00219269 0.00213708 0.00227538 0.00219269 0.00227035 0.00495357 0.00485634 0.00507519 0.00502488 0.00485634 0.0047591 0.00502488 0.00495666 0.00507519 0.00502488 0.0051968 0.00520668 0.00502488 0.00495666 0.00520668 0.00515421 0.00450339 0.0048501 0.00468424 0.0050206 0.0048501 0.0051968 0.0050206 0.00538214 0.00468424 0.0050206 0.00484324 0.00517015 0.0050206 0.00538214 0.00517015 0.00555639 0.00517015 0.00555639 0.00527659 0.00569088 0.00495623 0.00527659 0.00501534 0.00539202 0.00527659 0.00569088 0.00539202 0.00576869 0.0051968 0.00520668 0.00538214 0.00541535 0.00520668 0.00515421 0.00541535 0.00538384 0.00538214 0.00541535 0.00555639 0.00564031 0.00541535 0.00538384 0.00564031 0.00560637 0.00580493 0.00588995 0.00580882 0.00590567 0.00588995 0.00591177 0.00590567 0.00593087 0.00580882 0.00590567 0.00581272 0.00588134 0.00590567 0.00593087 0.00588134 0.00594997 0.00576869 0.00587335 0.00578681 0.00588477 0.00587335 0.00586709 0.00588477 0.00588943 0.00578681 0.00588477 0.00580493 0.00588995 0.00588477 0.00588943 0.00588995 0.00591177 0.00383089 0.00422069 0.00385113 0.00427077 0.00422069 0.0046105 0.00427077 0.00467927 0.00385113 0.00427077 0.00387136 0.00433282 0.00427077 0.00467927 0.00433282 0.00475474 0.00253913 0.00269885 0.00236166 0.002486 0.00368864 0.00412608 0.0035963 0.00402897 0.00550209 0.0055748 0.00534696 0.00545979 0.0055748 0.00564751 0.00545979 0.00543798 0.00534696 0.00545979 0.00520961 0.00521107 0.00545979 0.00543798 0.00521107 0.00521254 0.00387136 0.00433282 0.00400003 0.00442181 0.00433282 0.00475474 0.00442181 0.00485416 0.00400003 0.00442181 0.00414438 0.00454898 0.00442181 0.00485416 0.00454898 0.00495357 0.00561253 0.00489888 0.0057835 0.00470865 0.00489888 0.00482343 0.00470865 0.00535811 0.0057835 0.00470865 0.00572815 0.00500251 0.00470865 0.00535811 0.00500251 0.00507726 0.00383823 0.00438816 0.0038567 0.0043478 0.00438816 0.00443574 0.0043478 0.00444623 0.0038567 0.0043478 0.00388169 0.00419348 0.0043478 0.00444623 0.00419348 0.00450527 0.00443574 0.00389965 0.00444623 0.0039108 0.00389965 0.00452272 0.0039108 0.00450627 0.0039108 0.00450627 0.00397458 0.00448119 0.00450527 0.00397458 0.00455788 0.00410106 0.00397458 0.00448119 0.00410106 0.00446752 0.00455788 0.00410106 0.0046105 0.00426606 0.00120138 0.00223897 0.00125022 0.00229279 0.00223897 0.00217449 0.00229279 0.00232007 0.00125022 0.00229279 0.00150682 0.00253234 0.00229279 0.00232007 0.00253234 0.00267071 0.00412918 0.00361728 0.00412679 0.00381415 0.00361728 0.00303457 0.00381415 0.00315703 0.00412679 0.00381415 0.00442158 0.00389512 0.00381415 0.00315703 0.00389512 0.00336866 0.00837396 0.00621527 0.00831635 0.00617149 0.00621527 0.00536622 0.00617149 0.00531578 0.00831635 0.00617149 0.00823861 0.00605226 0.00617149 0.00531578 0.00605226 0.00524911 0.00388858 0.00441205 0.00378031 0.00435086 0.00441205 0.00493553 0.00435086 0.00480122 0.00378031 0.00435086 0.00374063 0.00420377 0.00435086 0.00480122 0.00420377 0.00466691 0.00198239 0.00216246 0.00196826 0.00212589 0.00216246 0.00234253 0.00212589 0.00230904 0.00196826 0.00212589 0.00195628 0.00213708 0.00212589 0.00230904 0.00213708 0.00227538 0.00598653 0.00657764 0.00597013 0.00657839 0.00657764 0.00691091 0.00657839 0.0069439 0.00597013 0.00657839 0.0058741 0.00649359 0.00657839 0.0069439 0.00649359 0.00687965 0.00516925 0.00572824 0.00518465 0.00574907 0.00518465 0.00574907 0.00515173 0.00568241 0.0058741 0.00649359 0.00566908 0.00634035 0.00649359 0.00687965 0.00634035 0.00676414 0.00566908 0.00634035 0.00529198 0.00609362 0.00634035 0.00676414 0.00609362 0.00654046 0.00515173 0.00568241 0.0050591 0.00554705 0.0046105 0.00426606 0.00467927 0.00445293 0.00426606 0.00445773 0.00445293 0.00445589 0.00467927 0.00445293 0.00475474 0.00462456 0.00445293 0.00445589 0.00462456 0.00449438 0.0053416 0.00434812 0.00473877 0.00420709 0.00473877 0.00420709 0.00448388 0.00401773 0.00355659 0.00344014 0.00359422 0.00336806 0.00344014 0.00277035 0.00336806 0.00278451 0.00359422 0.00336806 0.00348464 0.00314165 0.00336806 0.00278451 0.00314165 0.00279866 0.00488529 0.00532442 0.00457854 0.00502687 0.00536622 0.00523085 0.00531578 0.00521957 0.00523085 0.00495772 0.00521957 0.00493171 0.00531578 0.00521957 0.00524911 0.00504696 0.00521957 0.00493171 0.00504696 0.00484481 0.00346654 0.00312775 0.00355359 0.00335224 0.00312775 0.00278895 0.00335224 0.00279394 0.00355359 0.00335224 0.00367701 0.003459 0.00335224 0.00279394 0.003459 0.00284928 0.00376312 0.00348464 0.00382437 0.00347559 0.00382437 0.00347559 0.00385446 0.00346654 0.00823861 0.00605226 0.00813558 0.00588846 0.00605226 0.00524911 0.00588846 0.00506181 0.00813558 0.00588846 0.0078635 0.00570222 0.00588846 0.00506181 0.00570222 0.00487451 0.0078635 0.00570222 0.00718658 0.00562955 0.00570222 0.00487451 0.00562955 0.00456086 0.00718658 0.00562955 0.00634325 0.0053416 0.00562955 0.00456086 0.0053416 0.00434812 0.00466691 0.00455951 0.00459649 0.00422194 0.00455951 0.00445212 0.00422194 0.00447166 0.00459649 0.00422194 0.00452607 0.00401892 0.00438453 0.00516925 0.0043794 0.00518465 0.0043794 0.00518465 0.00433395 0.00515173 0.00500394 0.00524139 0.0050396 0.00522627 0.0050396 0.00522627 0.00492721 0.00512505 0.00534032 0.00356369 0.00534317 0.00355323 0.00356369 0.00353309 0.00355323 0.00355659 0.00378187 0.00415397 0.00379774 0.00432576 0.00415397 0.00452607 0.00432576 0.00445029 0.00379774 0.00432576 0.00383823 0.00438816 0.00432576 0.00445029 0.00438816 0.00443574 0.00396893 0.0049068 0.00392336 0.00488813 0.00452751 0.00474649 0.00480057 0.00488774 0.00474649 0.00496546 0.00488774 0.00514672 0.00488774 0.00514672 0.00500394 0.00524139 0.00234253 0.0030622 0.00230904 0.0032305 0.0030622 0.00378187 0.0032305 0.00379774 0.00230904 0.0032305 0.00227538 0.00326918 0.0032305 0.00379774 0.00326918 0.00383823 0.00412412 0.00326578 0.00402375 0.00324342 0.00326578 0.0020871 0.00324342 0.00197803 0.00402375 0.00324342 0.00387253 0.00317889 0.00324342 0.00197803 0.00317889 0.00186473 0.00402122 0.0031996 0.00408789 0.00325124 0.0031996 0.00212417 0.00325124 0.00213985 0.00408789 0.00325124 0.00412412 0.00326578 0.00325124 0.00213985 0.00326578 0.0020871 0.00401892 0.00449693 0.00393301 0.00452234 0.00445029 0.00393301 0.00443574 0.00389965 0.00393301 0.00452234 0.00389965 0.00452272 0.00687965 0.00673561 0.00676414 0.00663541 0.00505122 0.00476041 0.00532582 0.00498082 0.00476041 0.00450339 0.00498082 0.00468424 0.00532582 0.00498082 0.00550097 0.00514941 0.00498082 0.00468424 0.00514941 0.00484324 0.0020871 0.00185781 0.00197803 0.0017513 0.00185781 0.00120105 0.0017513 0.00112592 0.00197803 0.0017513 0.00186473 0.0016286 0.0017513 0.00112592 0.0016286 0.00105493 0.00189192 0.00167998 0.0018673 0.00145357 0.00206289 0.0018673 0.00212417 0.00189831 0.0018673 0.00145357 0.00189831 0.00132157 0.00212417 0.00189831 0.00213985 0.00190748 0.00189831 0.00132157 0.00190748 0.00125408 0.00190748 0.00125408 0.00185781 0.00120105 0.00512505 0.00532031 0.00491098 0.00513991 0.00532031 0.00547606 0.00513991 0.00520967 0.00491098 0.00513991 0.00460874 0.00477601 0.00513991 0.00520967 0.00477601 0.00494328 0.00306027 0.00338893 0.00265937 0.00302932 0.00338893 0.00371759 0.00302932 0.00334631 0.00265937 0.00302932 0.00236573 0.00267886 0.00302932 0.00334631 0.00267886 0.00298554 0.00487451 0.0045722 0.00456086 0.0043568 0.0045722 0.00426988 0.0043568 0.00393803 0.00456086 0.0043568 0.00434812 0.00407021 0.0043568 0.00393803 0.00407021 0.00360618 0.00405333 0.00423253 0.00409635 0.00434072 0.00423253 0.00488291 0.00434072 0.00507974 0.00434072 0.00507974 0.00438453 0.00516925 0.00434812 0.00407021 0.00420709 0.00382307 0.00407021 0.00360618 0.00382307 0.00333526 0.00420709 0.00382307 0.00401773 0.00356475 0.00382307 0.00333526 0.00356475 0.00311177 0.00236573 0.00267886 0.00217174 0.00241052 0.00267886 0.00298554 0.00241052 0.0026897 0.00217174 0.00241052 0.00205269 0.0022692 0.00241052 0.0026897 0.0022692 0.0024857 0.00643976 0.00420569 0.00660047 0.00524431 0.00420569 0.00412918 0.00524431 0.00412679 0.00660047 0.00524431 0.00684802 0.00542314 0.00524431 0.00412679 0.00542314 0.00442158 0.00379523 0.00391989 0.00336548 0.0033813 0.00391989 0.00404454 0.0033813 0.0035524 0.0033813 0.0035524 0.00291847 0.00306027 0.00684802 0.00542314 0.00717561 0.00565545 0.00542314 0.00442158 0.00565545 0.00464118 0.00717561 0.00565545 0.0079509 0.00576095 0.00565545 0.00464118 0.00576095 0.00486079 0.0079509 0.00576095 0.00820367 0.00594839 0.00576095 0.00486079 0.00594839 0.00502827 0.00820367 0.00594839 0.00830324 0.00610303 0.00594839 0.00502827 0.00610303 0.00520749 0.00486079 0.00438196 0.00502827 0.00471187 0.00438196 0.00390313 0.00471187 0.00421532 0.00502827 0.00471187 0.00520749 0.0049439 0.00471187 0.00421532 0.0049439 0.00452751 0.00229496 0.0022754 0.0020372 0.00196913 0.00214027 0.0020372 0.00204053 0.00189192 0.0020372 0.00196913 0.00189192 0.00167998 0.00830324 0.00610303 0.00837138 0.00618919 0.00610303 0.00520749 0.00618919 0.00531521 0.00837138 0.00618919 0.00837396 0.00621527 0.00618919 0.00531521 0.00621527 0.00536622 0.00555639 0.00564031 0.00569088 0.00581576 0.00569088 0.00581576 0.00576869 0.00587335 0.00581576 0.0057619 0.00587335 0.00586709 0.00520749 0.0049439 0.00531521 0.00513353 0.0049439 0.00452751 0.00513353 0.00480057 0.00531521 0.00513353 0.00536622 0.00523085 0.00513353 0.00480057 0.00523085 0.00495772 0.00303457 0.00319745 0.00315703 0.00331088 0.00319745 0.00346223 0.00331088 0.00364454 0.00315703 0.00331088 0.00336866 0.00359775 0.00331088 0.00364454 0.00359775 0.00382684 0.00326308 0.00386644 0.00360748 0.00421229 0.00386644 0.00474703 0.00421229 0.00499758 0.00474703 0.00471236 0.00499758 0.00523951 0.00402182 0.00433395 0.00398516 0.00426515 0.00433395 0.00515173 0.00426515 0.0050591 0.00398516 0.00426515 0.00387379 0.00411024 0.00426515 0.0050591 0.00411024 0.00488529 0.0051728 0.00449726 0.00515163 0.00447684 0.00449726 0.00407124 0.00447684 0.00405095 0.00515163 0.00447684 0.00513045 0.00444052 0.00447684 0.00405095 0.00444052 0.00402182 0.00355144 0.00319927 0.00360622 0.0031482 0.00319927 0.00271346 0.0031482 0.00271918 0.00360622 0.0031482 0.00359355 0.00320804 0.0031482 0.00271918 0.00320804 0.00273585 0.00524139 0.00545754 0.00522627 0.00542568 0.00545754 0.00566838 0.00542568 0.00557222 0.00522627 0.00542568 0.00512505 0.00532031 0.00542568 0.00557222 0.00532031 0.00547606 0.00385446 0.00346654 0.0039575 0.00355359 0.00424266 0.00367701 0.00424311 0.00384295 0.00568096 0.00424311 0.00643976 0.00420569 0.00424311 0.00384295 0.00420569 0.00412918 0.00367701 0.003459 0.00384295 0.00354147 0.003459 0.00284928 0.00354147 0.00292502 0.00384295 0.00354147 0.00412918 0.00361728 0.00448388 0.00401773 0.00424026 0.00387407 0.00424026 0.00387407 0.00399547 0.00373042 0.00557908 0.00399547 0.00611928 0.00349159 0.00399547 0.00373042 0.00349159 0.00369266 0.00611928 0.00349159 0.00537088 0.00374949 0.00349159 0.00369266 0.00374949 0.00355144 0.00484481 0.00492721 0.00455735 0.00470572 0.00492721 0.00512505 0.00470572 0.00491098 0.00455735 0.00470572 0.00426988 0.00443931 0.00470572 0.00491098 0.00443931 0.00460874 0.00373042 0.00327397 0.00369266 0.00325989 0.00327397 0.00281752 0.00325989 0.00274068 0.00325989 0.00274068 0.00319927 0.00271346 0.00360618 0.0037007 0.00333526 0.00334247 0.0037007 0.00379523 0.00334247 0.00336548 0.00333526 0.00334247 0.00311177 0.00302645 0.00334247 0.00336548 0.00302645 0.00297996 0.00416512 0.00352738 0.00435416 0.0036267 0.00352738 0.0029409 0.0036267 0.00300199 0.00435416 0.0036267 0.0045432 0.0037226 0.0036267 0.00300199 0.0037226 0.00304942 0.00120105 0.000690994 0.00112592 0.000820315 0.00112592 0.000820315 0.00105493 0.00106172 0.00382684 0.00412529 0.00411586 0.00445151 0.00412529 0.00442374 0.00445151 0.00479369 0.00411586 0.00445151 0.00440488 0.00477267 0.00445151 0.00479369 0.00477267 0.00513192 0.00440488 0.00477267 0.00468517 0.00505696 0.00477267 0.00513192 0.00505696 0.00538658 0.00468517 0.00505696 0.00496546 0.00527033 0.00505696 0.00538658 0.00527033 0.00559394 0.00167998 0.00151742 0.00145357 0.00108414 0.00145357 0.00108414 0.00132157 0.00081266 0.00488291 0.00540449 0.00507974 0.00560541 0.00540449 0.00578028 0.00560541 0.00592324 0.00507974 0.00560541 0.00516925 0.00572824 0.00560541 0.00592324 0.00572824 0.00598653 0.00132157 0.00081266 0.00125408 0.000691108 0.00125408 0.000691108 0.00120105 0.000690994 0.00496546 0.00527033 0.00514672 0.00541221 0.00527033 0.00559394 0.00541221 0.00563116 0.00514672 0.00541221 0.00524139 0.00545754 0.00541221 0.00563116 0.00545754 0.00566838 0.00278895 0.00277992 0.00279394 0.00287583 0.00277992 0.00277089 0.00287583 0.00298871 0.00279394 0.00287583 0.00284928 0.00299274 0.00287583 0.00298871 0.00299274 0.00319078 0.00317889 0.00186473 0.00309398 0.00183885 0.00309398 0.00183885 0.00308557 0.00194285 0.00368788 0.00308557 0.00372661 0.00313358 0.00372661 0.00313358 0.00383383 0.00324023 0.00313358 0.00218329 0.00324023 0.00249673 0.00383383 0.00324023 0.00399569 0.00338922 0.00324023 0.00249673 0.00338922 0.00277399 0.00399569 0.00338922 0.00416512 0.00352738 0.00338922 0.00277399 0.00352738 0.0029409 0.00229077 0.00242334 0.002363 0.00248279 0.00242334 0.00195628 0.00248279 0.00198347 0.002363 0.00248279 0.00243523 0.00257003 0.00248279 0.00198347 0.00257003 0.00206988 0.00284928 0.00299274 0.00292502 0.00310744 0.00299274 0.00319078 0.00310744 0.00332651 0.00292502 0.00310744 0.00303457 0.00319745 0.00310744 0.00332651 0.00319745 0.00346223 0.00409979 0.00312321 0.00402284 0.0030855 0.00312321 0.00238855 0.0030855 0.00214027 0.00402284 0.0030855 0.00395635 0.00309555 0.00395635 0.00309555 0.00395441 0.00313795 0.00309555 0.00204053 0.00313795 0.00206289 0.00313795 0.00206289 0.0031996 0.00212417 0.0029409 0.00277012 0.00300199 0.00292738 0.00277012 0.00292574 0.00292738 0.00325409 0.00300199 0.00292738 0.00304942 0.00304939 0.00292738 0.00325409 0.00304939 0.003544 0.00360748 0.00421229 0.00396492 0.00458099 0.00383373 0.00396492 0.00405333 0.00423253 0.00396492 0.00458099 0.00423253 0.00488291 0.00243523 0.00257003 0.00260306 0.00270747 0.00257003 0.00206988 0.00270747 0.0022393 0.00260306 0.00270747 0.00277089 0.00290951 0.00270747 0.0022393 0.00290951 0.00248422 0.00132374 0.00149137 0.00170551 0.00183358 0.00170551 0.00183358 0.00214424 0.0024579 0.00311177 0.00302645 0.00296465 0.00278934 0.00302645 0.00297996 0.00278934 0.00269506 0.00296465 0.00278934 0.00281752 0.00263208 0.00278934 0.00269506 0.00263208 0.0024891 0.00277089 0.00290951 0.00298871 0.00307584 0.00290951 0.00248422 0.00307584 0.00278582 0.00298871 0.00307584 0.00319078 0.00314976 0.00307584 0.00278582 0.00314976 0.00310873 0.00281752 0.00263208 0.00274068 0.00254589 0.00263208 0.0024891 0.00254589 0.00236774 0.00274068 0.00254589 0.00271346 0.00250226 0.00254589 0.00236774 0.00250226 0.00230029 0.00271346 0.00250226 0.00271918 0.00248974 0.00250226 0.00230029 0.00248974 0.00227352 0.00271918 0.00248974 0.00273585 0.00249401 0.00248974 0.00227352 0.00249401 0.0022675 0.00523951 0.00540922 0.00557685 0.00573532 0.00557685 0.00573532 0.00578028 0.0061139 0.00227625 0.00230676 0.00229077 0.00242334 0.00230676 0.00196826 0.00242334 0.00195628 0.00230029 0.00216807 0.00227352 0.00213786 0.00216807 0.00205269 0.00213786 0.00201754 0.00227352 0.00213786 0.0022675 0.00217879 0.00213786 0.00201754 0.00217879 0.00198239 0.00273585 0.00249401 0.00276238 0.00250304 0.00249401 0.0022675 0.00250304 0.00227625 0.00276238 0.00250304 0.00277035 0.00253056 0.00250304 0.00227625 0.00253056 0.00229077 0.00545021 0.00524446 0.00528754 0.00511044 0.00524446 0.00503871 0.00511044 0.00495155 0.00528754 0.00511044 0.00512487 0.00499463 0.00511044 0.00495155 0.00499463 0.00486439 0.00452272 0.00356835 0.00450627 0.00354662 0.00450627 0.00354662 0.00448119 0.00358281 0.00354662 0.00402375 0.00358281 0.00387253 0.00448119 0.00358281 0.00446752 0.00364027 0.00446752 0.00364027 0.00445773 0.0037054 0.00494328 0.00482009 0.00449391 0.00451756 0.00482009 0.0046969 0.00451756 0.00449258 0.00449391 0.00451756 0.00404454 0.0041664 0.00451756 0.00449258 0.0041664 0.00428826 0.00428826 0.00433353 0.00400293 0.0041333 0.00433353 0.00437879 0.0041333 0.00426345 0.00400293 0.0041333 0.00371759 0.0039098 0.0041333 0.00426345 0.0039098 0.0041367 0.00291847 0.00306027 0.00257699 0.00265937 0.00257699 0.00265937 0.00236199 0.00236573 0.00445589 0.00378089 0.00449438 0.00389028 0.00449438 0.00389028 0.00462674 0.00409734 0.00389028 0.00383383 0.00409734 0.00399569 0.00462674 0.00409734 0.0047591 0.00446211 0.00409734 0.00399569 0.00446211 0.00416512 0.00470442 0.0044776 0.00457827 0.00424799 0.0044776 0.00409979 0.00424799 0.00402284 0.00457827 0.00424799 0.00445212 0.00402249 0.00424799 0.00402284 0.00402249 0.00395635 0.00402249 0.00395635 0.00381777 0.00395441 0.00381777 0.00395441 0.003682 0.00402122 0.00449693 0.003682 0.00452234 0.00358561 0.003682 0.00402122 0.00358561 0.00408789 0.0024891 0.00236199 0.00236774 0.00223502 0.00236199 0.00236573 0.00223502 0.00217174 0.00236774 0.00223502 0.00230029 0.00216807 0.00223502