# vtk DataFile Version 3.0
#This file was generated by the deal.II library on 2023/3/1 at 4:17:00
ASCII
DATASET UNSTRUCTURED_GRID

FIELD FieldData 2
CYCLE 1 1 int
32
TIME 1 1 double
0.064
POINTS 3580 double
2 0 0
1.41421 1.22465e-16 1.41421
2.29289 0.707107 0
1.62132 0.707107 1.62132
2.29289 -0.707107 0
1.62132 -0.707107 1.62132
2 0 0
1.41421 1.22465e-16 1.41421
0 0 -2
1.41421 1.22465e-16 -1.41421
-4.21198e-16 0.707107 -2.29289
1.62132 0.707107 -1.62132
1.41421 1.22465e-16 -1.41421
2 0 0
1.62132 0.707107 -1.62132
2.29289 0.707107 0
-4.21198e-16 0.707107 -2.29289
1.62132 0.707107 -1.62132
0 1 -3
2.12132 1 -2.12132
1.62132 0.707107 -1.62132
2.29289 0.707107 0
2.12132 1 -2.12132
3 1 0
0 -1 -3
2.12132 -1 -2.12132
-4.21198e-16 -0.707107 -2.29289
1.62132 -0.707107 -1.62132
2.12132 -1 -2.12132
3 -1 0
1.62132 -0.707107 -1.62132
2.29289 -0.707107 0
-4.21198e-16 -0.707107 -2.29289
1.62132 -0.707107 -1.62132
0 0 -2
1.41421 1.22465e-16 -1.41421
1.62132 -0.707107 -1.62132
2.29289 -0.707107 0
1.41421 1.22465e-16 -1.41421
2 0 0
0 0 -4
2.82843 0 -2.82843
-6.80984e-16 -0.707107 -3.70711
2.62132 -0.707107 -2.62132
2.82843 0 -2.82843
4 0 0
2.62132 -0.707107 -2.62132
3.70711 -0.707107 0
-6.80984e-16 -0.707107 -3.70711
2.62132 -0.707107 -2.62132
0 -1 -3
2.12132 -1 -2.12132
2.62132 -0.707107 -2.62132
3.70711 -0.707107 0
2.12132 -1 -2.12132
3 -1 0
0 1 -3
2.12132 1 -2.12132
-6.80984e-16 0.707107 -3.70711
2.62132 0.707107 -2.62132
2.12132 1 -2.12132
3 1 0
2.62132 0.707107 -2.62132
3.70711 0.707107 0
-6.80984e-16 0.707107 -3.70711
2.62132 0.707107 -2.62132
0 0 -4
2.82843 0 -2.82843
2.62132 0.707107 -2.62132
3.70711 0.707107 0
2.82843 0 -2.82843
4 0 0
2.29289 0.707107 0
2.11836 0.707107 0.877452
2.61732 0.92388 0
2.41809 0.92388 1.0016
2.11836 0.707107 0.877452
1.62132 0.707107 1.62132
2.41809 0.92388 1.0016
1.85072 0.92388 1.85072
2.61732 0.92388 0
2.41809 0.92388 1.0016
3 1 0
2.77164 1 1.14805
2.41809 0.92388 1.0016
1.85072 0.92388 1.85072
2.77164 1 1.14805
2.12132 1 2.12132
3 -1 0
2.77164 -1 1.14805
2.61732 -0.92388 0
2.41809 -0.92388 1.0016
2.77164 -1 1.14805
2.12132 -1 2.12132
2.41809 -0.92388 1.0016
1.85072 -0.92388 1.85072
2.61732 -0.92388 0
2.41809 -0.92388 1.0016
2.29289 -0.707107 0
2.11836 -0.707107 0.877452
2.41809 -0.92388 1.0016
1.85072 -0.92388 1.85072
2.11836 -0.707107 0.877452
1.62132 -0.707107 1.62132
-1.62132 0.707107 -1.62132
-0.877452 0.707107 -2.11836
-1.85072 0.92388 -1.85072
-1.0016 0.92388 -2.41809
-0.877452 0.707107 -2.11836
-4.21198e-16 0.707107 -2.29289
-1.0016 0.92388 -2.41809
-4.80793e-16 0.92388 -2.61732
-1.85072 0.92388 -1.85072
-1.0016 0.92388 -2.41809
-2.12132 1 -2.12132
-1.14805 1 -2.77164
-1.0016 0.92388 -2.41809
-4.80793e-16 0.92388 -2.61732
-1.14805 1 -2.77164
0 1 -3
3.70711 -0.707107 0
3.42492 -0.707107 1.41865
3.38268 -0.92388 0
3.12519 -0.92388 1.2945
3.38268 -0.92388 0
3.12519 -0.92388 1.2945
3 -1 0
2.77164 -1 1.14805
3.12519 -0.92388 1.2945
2.39192 -0.92388 2.39192
2.77164 -1 1.14805
2.12132 -1 2.12132
3 1 0
2.77164 1 1.14805
3.38268 0.92388 0
3.12519 0.92388 1.2945
2.77164 1 1.14805
2.12132 1 2.12132
3.12519 0.92388 1.2945
2.39192 0.92388 2.39192
3.38268 0.92388 0
3.12519 0.92388 1.2945
3.70711 0.707107 0
3.42492 0.707107 1.41865
-2.12132 -1 -2.12132
-1.14805 -1 -2.77164
-1.85072 -0.92388 -1.85072
-1.0016 -0.92388 -2.41809
-1.14805 -1 -2.77164
0 -1 -3
-1.0016 -0.92388 -2.41809
-4.80793e-16 -0.92388 -2.61732
-1.85072 -0.92388 -1.85072
-1.0016 -0.92388 -2.41809
-1.62132 -0.707107 -1.62132
-0.877452 -0.707107 -2.11836
-1.0016 -0.92388 -2.41809
-4.80793e-16 -0.92388 -2.61732
-0.877452 -0.707107 -2.11836
-4.21198e-16 -0.707107 -2.29289
1.62132 0.707107 1.62132
0.877452 0.707107 2.11836
1.85072 0.92388 1.85072
1.0016 0.92388 2.41809
1.85072 0.92388 1.85072
1.0016 0.92388 2.41809
2.12132 1 2.12132
1.14805 1 2.77164
-4 0 0
-3.69552 0 -1.53073
-3.92388 -0.382683 4.80537e-16
-3.62519 -0.382683 -1.5016
-3.69552 0 -1.53073
-2.82843 0 -2.82843
-3.62519 -0.382683 -1.5016
-2.7746 -0.382683 -2.7746
-3.92388 -0.382683 4.80537e-16
-3.62519 -0.382683 -1.5016
-3.70711 -0.707107 4.5399e-16
-3.42492 -0.707107 -1.41865
-3.62519 -0.382683 -1.5016
-2.7746 -0.382683 -2.7746
-3.42492 -0.707107 -1.41865
-2.62132 -0.707107 -2.62132
2.12132 -1 2.12132
1.14805 -1 2.77164
1.85072 -0.92388 1.85072
1.0016 -0.92388 2.41809
1.85072 -0.92388 1.85072
1.0016 -0.92388 2.41809
1.62132 -0.707107 1.62132
0.877452 -0.707107 2.11836
-0.765367 1.22465e-16 -1.84776
0 0 -2
-0.794497 0.382683 -1.91809
-3.81377e-16 0.382683 -2.07612
-0.794497 0.382683 -1.91809
-3.81377e-16 0.382683 -2.07612
-0.877452 0.707107 -2.11836
-4.21198e-16 0.707107 -2.29289
-0.877452 -0.707107 -2.11836
-4.21198e-16 -0.707107 -2.29289
-0.794497 -0.382683 -1.91809
-3.81377e-16 -0.382683 -2.07612
-0.794497 -0.382683 -1.91809
-3.81377e-16 -0.382683 -2.07612
-0.765367 1.22465e-16 -1.84776
0 0 -2
-2.82843 0 -2.82843
-1.53073 0 -3.69552
-2.7746 -0.382683 -2.7746
-1.5016 -0.382683 -3.62519
-1.53073 0 -3.69552
0 0 -4
-1.5016 -0.382683 -3.62519
-7.20805e-16 -0.382683 -3.92388
-2.7746 -0.382683 -2.7746
-1.5016 -0.382683 -3.62519
-2.62132 -0.707107 -2.62132
-1.41865 -0.707107 -3.42492
-1.5016 -0.382683 -3.62519
-7.20805e-16 -0.382683 -3.92388
-1.41865 -0.707107 -3.42492
-6.80984e-16 -0.707107 -3.70711
4 0 0
3.69552 0 1.53073
3.92388 -0.382683 0
3.62519 -0.382683 1.5016
3.92388 -0.382683 0
3.62519 -0.382683 1.5016
3.70711 -0.707107 0
3.42492 -0.707107 1.41865
2.62132 -0.707107 2.62132
1.41865 -0.707107 3.42492
2.39192 -0.92388 2.39192
1.2945 -0.92388 3.12519
2.39192 -0.92388 2.39192
1.2945 -0.92388 3.12519
2.12132 -1 2.12132
1.14805 -1 2.77164
2.12132 1 2.12132
1.14805 1 2.77164
2.39192 0.92388 2.39192
1.2945 0.92388 3.12519
2.39192 0.92388 2.39192
1.2945 0.92388 3.12519
2.62132 0.707107 2.62132
1.41865 0.707107 3.42492
3.70711 0.707107 0
3.42492 0.707107 1.41865
3.92388 0.382683 0
3.62519 0.382683 1.5016
3.92388 0.382683 0
3.62519 0.382683 1.5016
4 0 0
3.69552 0 1.53073
-2.62132 -0.707107 -2.62132
-1.41865 -0.707107 -3.42492
-2.39192 -0.92388 -2.39192
-1.2945 -0.92388 -3.12519
-1.41865 -0.707107 -3.42492
-6.80984e-16 -0.707107 -3.70711
-1.2945 -0.92388 -3.12519
-6.21389e-16 -0.92388 -3.38268
-2.39192 -0.92388 -2.39192
-1.2945 -0.92388 -3.12519
-2.12132 -1 -2.12132
-1.14805 -1 -2.77164
-1.2945 -0.92388 -3.12519
-6.21389e-16 -0.92388 -3.38268
-1.14805 -1 -2.77164
0 -1 -3
-2.12132 1 -2.12132
-1.14805 1 -2.77164
-2.39192 0.92388 -2.39192
-1.2945 0.92388 -3.12519
-1.14805 1 -2.77164
0 1 -3
-1.2945 0.92388 -3.12519
-6.21389e-16 0.92388 -3.38268
-2.39192 0.92388 -2.39192
-1.2945 0.92388 -3.12519
-2.62132 0.707107 -2.62132
-1.41865 0.707107 -3.42492
-1.2945 0.92388 -3.12519
-6.21389e-16 0.92388 -3.38268
-1.41865 0.707107 -3.42492
-6.80984e-16 0.707107 -3.70711
-3.70711 0.707107 4.5399e-16
-3.42492 0.707107 -1.41865
-3.92388 0.382683 4.80537e-16
-3.62519 0.382683 -1.5016
-3.42492 0.707107 -1.41865
-2.62132 0.707107 -2.62132
-3.62519 0.382683 -1.5016
-2.7746 0.382683 -2.7746
-3.92388 0.382683 4.80537e-16
-3.62519 0.382683 -1.5016
-4 0 0
-3.69552 0 -1.53073
-3.62519 0.382683 -1.5016
-2.7746 0.382683 -2.7746
-3.69552 0 -1.53073
-2.82843 0 -2.82843
-2.62132 0.707107 -2.62132
-1.41865 0.707107 -3.42492
-2.7746 0.382683 -2.7746
-1.5016 0.382683 -3.62519
-1.41865 0.707107 -3.42492
-6.80984e-16 0.707107 -3.70711
-1.5016 0.382683 -3.62519
-7.20805e-16 0.382683 -3.92388
-2.7746 0.382683 -2.7746
-1.5016 0.382683 -3.62519
-2.82843 0 -2.82843
-1.53073 0 -3.69552
-1.5016 0.382683 -3.62519
-7.20805e-16 0.382683 -3.92388
-1.53073 0 -3.69552
0 0 -4
1.41421 1.22465e-16 1.41421
0.765367 1.22465e-16 1.84776
1.46804 0.382683 1.46804
0.794497 0.382683 1.91809
0.765367 1.22465e-16 1.84776
0 0 2
0.794497 0.382683 1.91809
1.27126e-16 0.382683 2.07612
1.46804 0.382683 1.46804
0.794497 0.382683 1.91809
1.62132 0.707107 1.62132
0.877452 0.707107 2.11836
1.62132 -0.707107 1.62132
0.877452 -0.707107 2.11836
1.46804 -0.382683 1.46804
0.794497 -0.382683 1.91809
1.46804 -0.382683 1.46804
0.794497 -0.382683 1.91809
1.41421 1.22465e-16 1.41421
0.765367 1.22465e-16 1.84776
0.794497 -0.382683 1.91809
1.27126e-16 -0.382683 2.07612
0.765367 1.22465e-16 1.84776
0 0 2
2.7746 -0.382683 2.7746
1.5016 -0.382683 3.62519
2.62132 -0.707107 2.62132
1.41865 -0.707107 3.42492
0 0 2
-0.765367 1.22465e-16 1.84776
1.27126e-16 0.382683 2.07612
-0.794497 0.382683 1.91809
-0.765367 1.22465e-16 1.84776
-1.41421 1.22465e-16 1.41421
-0.794497 0.382683 1.91809
-1.46804 0.382683 1.46804
1.27126e-16 0.382683 2.07612
-0.794497 0.382683 1.91809
1.40399e-16 0.707107 2.29289
-0.877452 0.707107 2.11836
-0.794497 0.382683 1.91809
-1.46804 0.382683 1.46804
-0.877452 0.707107 2.11836
-1.62132 0.707107 1.62132
-0.877452 0.707107 2.11836
-1.62132 0.707107 1.62132
-1.0016 0.92388 2.41809
-1.85072 0.92388 1.85072
-1.0016 0.92388 2.41809
-1.85072 0.92388 1.85072
-1.14805 1 2.77164
-2.12132 1 2.12132
-1.14805 -1 2.77164
-2.12132 -1 2.12132
-1.0016 -0.92388 2.41809
-1.85072 -0.92388 1.85072
-1.0016 -0.92388 2.41809
-1.85072 -0.92388 1.85072
-0.877452 -0.707107 2.11836
-1.62132 -0.707107 1.62132
1.40399e-16 -0.707107 2.29289
-0.877452 -0.707107 2.11836
1.27126e-16 -0.382683 2.07612
-0.794497 -0.382683 1.91809
-0.877452 -0.707107 2.11836
-1.62132 -0.707107 1.62132
-0.794497 -0.382683 1.91809
-1.46804 -0.382683 1.46804
1.27126e-16 -0.382683 2.07612
-0.794497 -0.382683 1.91809
0 0 2
-0.765367 1.22465e-16 1.84776
-0.794497 -0.382683 1.91809
-1.46804 -0.382683 1.46804
-0.765367 1.22465e-16 1.84776
-1.41421 1.22465e-16 1.41421
-2.82843 0 2.82843
-3.69552 0 1.53073
-2.7746 -0.382683 2.7746
-3.62519 -0.382683 1.5016
-3.69552 0 1.53073
-4 0 0
-3.62519 -0.382683 1.5016
-3.92388 -0.382683 4.80537e-16
-2.7746 -0.382683 2.7746
-3.62519 -0.382683 1.5016
-2.62132 -0.707107 2.62132
-3.42492 -0.707107 1.41865
-3.62519 -0.382683 1.5016
-3.92388 -0.382683 4.80537e-16
-3.42492 -0.707107 1.41865
-3.70711 -0.707107 4.5399e-16
-2.62132 0.707107 2.62132
-3.42492 0.707107 1.41865
-2.7746 0.382683 2.7746
-3.62519 0.382683 1.5016
-3.42492 0.707107 1.41865
-3.70711 0.707107 4.5399e-16
[...]
POINT_DATA 3580
SCALARS U double 1
LOOKUP_TABLE default
0.000813173 0.00192254 0.000776647 0.00146803 0.000776646 0.00146802 0.000813173 0.00192254 -6.57098e-05 1.84353e-05 6.83261e-05 -1.22729e-05 1.84353e-05 0.000813173 -1.22729e-05 0.000776647 6.83261e-05 -1.22729e-05 0.000134967 -3.98328e-05 -1.22729e-05 0.000776647 -3.98328e-05 0.000503658 0.000134969 -3.98383e-05 6.83261e-05 -1.22726e-05 -3.98383e-05 0.000503674 -1.22726e-05 0.000776646 6.83261e-05 -1.22726e-05 -6.57098e-05 1.84353e-05 -1.22726e-05 0.000776646 1.84353e-05 0.000813173 -0.000240361 8.22896e-05 -8.45634e-05 3.17171e-05 8.22896e-05 3.23941e-05 3.17171e-05 0.000257105 -8.45634e-05 3.17171e-05 0.000134969 -3.98383e-05 3.17171e-05 0.000257105 -3.98383e-05 0.000503674 0.000134967 -3.98328e-05 -8.45657e-05 3.17241e-05 -3.98328e-05 0.000503658 3.17241e-05 0.000257113 -8.45657e-05 3.17241e-05 -0.000240361 8.22896e-05 3.17241e-05 0.000257113 8.22896e-05 3.23941e-05 0.000776647 0.00112234 0.000640152 0.000856587 0.00112234 0.00146803 0.000856587 0.00147017 0.000640152 0.000856587 0.000503658 0.000628641 0.000856587 0.00147017 0.000628641 0.00159346 0.000503674 0.000628671 0.00064016 0.000856563 0.000628671 0.00159297 0.000856563 0.00147028 0.00064016 0.000856563 0.000776646 0.00112233 0.000856563 0.00147028 0.00112233 0.00146802 0.00121848 -0.000266942 0.00156175 -0.00037525 -0.000266942 6.83261e-05 -0.00037525 0.000101647 0.00156175 -0.00037525 0.00140385 -0.000356135 -0.00037525 0.000101647 -0.000356135 0.000134967 0.000257105 0.000359597 0.00038039 0.000557161 0.00038039 0.000557161 0.000503674 0.000628671 0.000557161 0.00136324 0.000628671 0.00159297 0.000503658 0.000628641 0.000380386 0.000557903 0.000628641 0.00159346 0.000557903 0.0013612 0.000380386 0.000557903 0.000257113 0.00035989 0.00140385 -0.000356135 0.00156175 -0.00037525 -0.000356135 0.000134969 -0.00037525 0.000101647 0.00156175 -0.00037525 0.00121848 -0.000266942 -0.00037525 0.000101647 -0.000266942 6.83261e-05 0.00146803 0.00163051 0.00147017 0.00104914 0.00147017 0.00104914 0.00159346 0.000714577 -0.000187836 0.000125109 -0.000220493 1.86301e-05 0.000125109 0.00150799 1.86301e-05 0.00115156 -0.000220493 1.86301e-05 -0.000216774 -0.000125762 1.86301e-05 0.00115156 -0.000125762 0.00149918 0.00159297 0.000714136 0.00147028 0.00104925 0.00147028 0.00104925 0.00146802 0.00163048 2.95901e-05 -6.57098e-05 0.00017123 1.30815e-06 0.00017123 1.30815e-06 -0.000266942 6.83261e-05 -0.000266942 6.83261e-05 0.000171231 1.30813e-06 0.000171231 1.30813e-06 2.95901e-05 -6.57098e-05 0.00150799 0.000294756 0.00115156 0.000255911 0.000294756 -0.000240361 0.000255911 -0.000162462 0.00115156 0.000255911 0.00149918 2.32582e-05 0.000255911 -0.000162462 2.32582e-05 -8.45634e-05 3.23941e-05 3.0457e-05 0.00014475 0.000133181 0.00014475 0.000133181 0.000257105 0.000359597 0.001365 0.000844105 0.00136324 0.000857168 0.00136324 0.000857168 0.00159297 0.000714136 0.00159346 0.000714577 0.0013612 0.000855352 0.0013612 0.000855352 0.00137558 0.000850872 0.000257113 0.00035989 0.000144754 0.000133033 0.000144754 0.000133033 3.23941e-05 3.0457e-05 0.00149918 2.32582e-05 0.00190915 -0.000283384 2.32582e-05 -8.45634e-05 -0.000283384 2.52027e-05 0.00190915 -0.000283384 0.00140385 -0.000356135 -0.000283384 2.52027e-05 -0.000356135 0.000134969 0.00140385 -0.000356135 0.00190915 -0.000283384 -0.000356135 0.000134967 -0.000283384 2.52006e-05 0.00190915 -0.000283384 0.00149918 2.32586e-05 -0.000283384 2.52006e-05 2.32586e-05 -8.45657e-05 -0.000216775 -0.000125761 -0.000220493 1.863e-05 -0.000125761 0.00149918 1.863e-05 0.00115156 -0.000220493 1.863e-05 -0.000187836 0.000125109 1.863e-05 0.00115156 0.000125109 0.00150799 0.00149918 2.32586e-05 0.00115156 0.000255911 2.32586e-05 -8.45657e-05 0.000255911 -0.000162463 0.00115156 0.000255911 0.00150799 0.000294756 0.000255911 -0.000162463 0.000294756 -0.000240361 0.00192254 0.00191263 0.00169529 0.00187978 0.00191263 0.00194296 0.00187978 0.00196625 0.00169529 0.00187978 0.00146803 0.00163051 0.00146802 0.00163048 0.00169528 0.00187979 0.00169528 0.00187979 0.00192254 0.00191263 0.00187979 0.00196625 0.00191263 0.00194296 0.00175825 0.000572489 0.001365 0.000844105 0.00194296 0.00165402 0.00196625 0.00167749 0.00165402 0.000286787 0.00167749 0.000225214 0.00196625 0.00167749 0.00198987 0.00160242 0.00167749 0.000225214 0.00160242 0.00023664 0.00160242 0.00023664 0.00110197 0.000660072 0.00110197 0.000660072 0.000542125 0.00119457 0.00054249 0.00119465 0.00110194 0.00066004 0.00110194 0.00066004 0.00160242 0.000236648 0.00198987 0.00160242 0.00196625 0.00167749 0.00160242 0.000236648 0.00167749 0.000225212 0.00196625 0.00167749 0.00194296 0.00165402 0.00167749 0.000225212 0.00165402 0.000286787 0.00157308 0.000662598 0.00160835 0.000690151 0.000662598 -0.000187836 0.000690151 -0.000220493 0.00160835 0.000690151 0.00162191 0.000688549 0.000690151 -0.000220493 0.000688549 -0.000216774 0.00162189 0.000688554 0.00160833 0.000690148 0.000688554 -0.000216775 0.000690148 -0.000220493 0.00160833 0.000690148 0.00157308 0.000662598 0.000690148 -0.000220493 0.000662598 -0.000187836 0.000359597 0.000836978 0.000458379 0.000906116 0.000836978 0.001365 0.000906116 0.00136412 0.000458379 0.000906116 0.000557161 0.000960198 0.000906116 0.00136412 0.000960198 0.00136324 0.000557903 0.000959551 0.000458896 0.00090521 0.000959551 0.0013612 0.00090521 0.00136839 0.000458896 0.00090521 0.00035989 0.000835249 0.00090521 0.00136839 0.000835249 0.00137558 0.00133237 -0.000193481 0.00121287 -0.000259054 -0.000193481 2.95901e-05 -0.000259054 0.00010041 0.00121287 -0.000259054 0.00112742 -0.000325548 -0.000259054 0.00010041 -0.000325548 0.00017123 0.00112742 -0.000325548 0.00102895 -0.000498863 -0.000325548 0.00017123 -0.000498863 -4.78559e-05 0.00102895 -0.000498863 0.00121848 0.000475769 -0.000498863 -4.78559e-05 0.000475769 -0.000266942 0.00121848 0.000475769 0.00102895 -0.000498863 0.000475769 -0.000266942 -0.000498863 -4.78558e-05 0.00102895 -0.000498863 0.00112742 -0.000325548 -0.000498863 -4.78558e-05 -0.000325548 0.000171231 0.00112742 -0.000325548 0.00121287 -0.000259054 -0.000325548 0.000171231 -0.000259054 0.00010041 0.00121287 -0.000259054 0.00133237 -0.000193481 -0.000259054 0.00010041 -0.000193481 2.95901e-05 0.00187978 0.00192301 0.00175514 0.00188262 0.00192301 0.00196625 0.00188262 0.00197806 0.00175514 0.00188262 0.00163051 0.0018088 0.00188262 0.00197806 0.0018088 0.00198987 0.00163048 0.0018088 0.00175513 0.00188262 0.0018088 0.00198987 0.00188262 0.00197806 0.00175513 0.00188262 0.00187979 0.00192302 0.00188262 0.00197806 0.00192302 0.00196625 0.00138496 0.00132398 0.00187008 0.00160202 0.00132398 0.00112742 0.00160202 0.00102895 0.00187008 0.00160202 0.0021654 0.00170415 0.00160202 0.00102895 0.00170415 0.00121848 0.0021654 0.00170415 0.00217523 0.00164587 0.00170415 0.00121848 0.00164587 0.00139011 0.00217523 0.00164587 0.00213621 0.0015573 0.00164587 0.00139011 0.0015573 0.00156175 0.000899323 0.00157308 0.000901074 0.00159072 0.000901074 0.00159072 0.000902044 0.00160835 0.000315564 0.000902044 0.000319734 0.000918335 0.000902044 0.00160835 0.000918335 0.00161513 0.000319734 0.000918335 0.000327945 0.000913787 0.000918335 0.00161513 0.000913787 0.00162191 0.000327945 0.000913787 0.000339338 0.000892496 0.000913787 0.00162191 0.000892496 0.00157145 0.000892496 0.00157145 0.000862862 0.00149468 0.00213621 0.0015573 0.00223621 0.00161335 0.0015573 0.00156175 0.00161335 0.0014828 0.00223621 0.00161335 0.00214345 0.00159719 0.00161335 0.0014828 0.00159719 0.00140385 0.00214345 0.00159719 0.00223621 0.00161335 0.00159719 0.00140385 0.00161335 0.0014828 0.00223621 0.00161335 0.00213621 0.0015573 0.00161335 0.0014828 0.0015573 0.00156175 0.00213621 0.0015573 0.00217523 0.00164587 0.0015573 0.00156175 0.00164587 0.00139011 0.00217523 0.00164587 0.0021654 0.00170415 0.00164587 0.00139011 0.00170415 0.00121848 0.0021654 0.00170415 0.00187008 0.00160202 0.00170415 0.00121848 0.00160202 0.00102895 0.00187008 0.00160202 0.00138496 0.00132398 0.00160202 0.00102895 0.00132398 0.00112742 0.000370984 0.000862862 0.00042384 0.000838337 0.000862862 0.00149468 0.000838337 0.0013744 0.00042384 0.000838337 0.00054249 0.000868568 0.000838337 0.0013744 0.000868568 0.00119465 0.000542125 0.000868349 0.000422906 0.000838659 0.000868349 0.00119457 0.000838659 0.00137426 0.000838659 0.00137426 0.000873253 0.00149195 0.000873253 0.00149195 0.00089114 0.0015718 0.00033921 0.00089114 0.000327974 0.000913912 0.00089114 0.0015718 0.000913912 0.00162189 0.000327974 0.000913912 0.000319674 0.00091835 0.000913912 0.00162189 0.00091835 0.00161511 0.000319674 0.00091835 0.000315222 0.00090211 0.00091835 0.00161511 0.00090211 0.00160833 0.00090211 0.00160833 0.000901157 0.00159071 0.000901157 0.00159071 0.000899323 0.00157308 -0.000216774 -0.000171268 -0.000117752 3.82307e-05 -0.000171268 -0.000125762 3.82307e-05 1.21406e-05 -0.000117752 3.82307e-05 -1.34599e-05 0.000433593 3.82307e-05 1.21406e-05 0.000433593 0.000260808 0.000318043 0.000814251 0.000637883 0.00117392 0.000814251 0.00189766 0.00117392 0.00178633 0.000637883 0.00117392 0.000318043 0.000814251 0.00117392 0.00178633 0.000814251 0.00189766 -0.000125762 0.000686707 1.21406e-05 0.000728317 0.000686707 0.00149918 0.000728317 0.00170416 1.21406e-05 0.000728317 0.000260808 0.000718884 0.000728317 0.00170416 0.000718884 0.00190915 0.000260808 0.000718884 0.00121465 0.0011354 0.000718884 0.00190915 0.0011354 0.0016565 0.00121465 0.0011354 0.00214345 0.00159719 0.0011354 0.0016565 0.00159719 0.00140385 0.00214345 0.00159719 0.00121465 0.0011354 0.00159719 0.00140385 0.0011354 0.0016565 0.00121465 0.0011354 0.000260808 0.000718884 0.0011354 0.0016565 0.000718884 0.00190915 0.00163051 0.0018088 0.00133983 0.00163093 0.0018088 0.00198987 0.00163093 0.00198831 0.00133983 0.00163093 0.00104914 0.00135204 0.00163093 0.00198831 0.00135204 0.0019849 -1.34606e-05 0.000433593 -0.000117751 3.82303e-05 0.000433593 0.000260808 3.82303e-05 1.21406e-05 -0.000117751 3.82303e-05 -0.000216775 -0.000171268 3.82303e-05 1.21406e-05 -0.000171268 -0.000125761 0.00104914 0.00135204 0.00088186 0.00105896 0.00135204 0.0019849 0.00105896 0.00197345 0.00088186 0.00105896 0.000714577 0.000845796 0.00105896 0.00197345 0.000845796 0.00196951 0.000286787 0.000265137 0.000256 0.000270439 0.000265137 0.000171668 0.000270439 0.000318043 0.000256 0.000270439 0.000225214 0.000264118 0.000270439 0.000318043 0.000264118 0.000637883 0.000225214 0.000264118 0.000230927 0.000254046 0.000264118 0.000637883 0.000254046 0.000858511 0.000230927 0.000254046 0.00023664 0.000296529 0.000254046 0.000858511 0.000296529 0.0009208 0.000637883 0.00117392 0.000858511 0.00168884 0.00117392 0.00178633 0.00168884 0.00160729 0.000858511 0.00168884 0.0009208 0.00194155 0.00168884 0.00160729 0.00194155 0.0013026 0.000260808 0.000718884 1.21406e-05 0.000728318 0.000718884 0.00190915 0.000728318 0.00170416 1.21406e-05 0.000728318 -0.000125761 0.000686707 0.000728318 0.00170416 0.000686707 0.00149918 0.00023664 0.000296529 0.000448356 0.00039012 0.000296529 0.0009208 0.00039012 0.000912591 0.000448356 0.00039012 0.000660072 0.000628553 0.00039012 0.000912591 0.000628553 0.000959211 0.0009208 0.00194155 0.000912591 0.00195365 0.00194155 0.0013026 0.00195365 0.000846872 0.000660072 0.000628553 0.000927323 0.000982963 0.000628553 0.000959211 0.000982963 0.00119306 0.000927323 0.000982963 0.00119457 0.00126773 0.000982963 0.00119306 0.00126773 0.00132529 0.000714136 0.000845909 0.000881693 0.001059 0.000845909 0.00196948 0.001059 0.00197344 0.000881693 0.001059 0.00104925 0.00135202 0.001059 0.00197344 0.00135202 0.0019849 3.0457e-05 0.000578816 8.1819e-05 0.000575123 8.1819e-05 0.000575123 0.000133181 0.000596984 0.000133181 0.000596984 0.000246389 0.000682225 0.000596984 0.00175825 0.000682225 0.00156162 0.000246389 0.000682225 0.000359597 0.000836978 0.000682225 0.00156162 0.000836978 0.001365 0.00035989 0.000835249 0.000246461 0.000684378 0.000835249 0.00137558 0.000684378 0.00156213 0.000246461 0.000684378 0.000133033 0.000597537 0.00104925 0.00135202 0.00133986 0.00163092 0.00135202 0.0019849 0.00163092 0.00198831 0.00133986 0.00163092 0.00163048 0.0018088 0.00163092 0.00198831 0.0018088 0.00198987 0.000133033 0.000597537 8.17449e-05 0.000575146 8.17449e-05 0.000575146 3.0457e-05 0.000578816 0.000844105 0.000538128 0.000850637 0.000614745 0.000538128 0.00203553 0.000614745 0.00200939 0.000850637 0.000614745 0.000857168 0.000649363 0.000614745 0.00200939 0.000649363 0.00199116 0.000857168 0.000649363 0.000785652 0.000704867 0.000649363 0.00199116 0.000704867 0.00197631 0.000785652 0.000704867 0.000714136 0.000845909 0.000704867 0.00197631 0.000845909 0.00196948 0.000714577 0.000845796 0.000784964 0.000705044 0.000845796 0.00196951 0.000705044 0.00197623 0.000784964 0.000705044 0.000855352 0.000649826 0.000705044 0.00197623 0.000649826 0.00199094 0.000855352 0.000649826 0.000853112 0.000614083 0.000649826 0.00199094 0.000614083 0.00200956 0.000853112 0.000614083 0.000850872 0.000536548 0.000614083 0.00200956 0.000536548 0.00203618 0.00162191 0.00115523 0.00157145 0.00117215 0.00115523 0.000688549 0.00117215 0.000714175 0.00157145 0.00117215 0.00149468 0.00120764 0.00117215 0.000714175 0.00120764 0.00084482 0.000688549 0.000235888 0.000714175 0.000165928 0.000235888 -0.000216774 0.000165928 -0.000117752 0.00198987 0.00179614 0.00198831 0.00153818 0.00179614 0.00160242 0.00153818 0.00135219 0.00198831 0.00153818 0.0019849 0.00143754 0.00153818 0.00135219 0.00143754 0.00110197 0.00149468 0.00120764 0.0013744 0.00130086 0.00120764 0.00084482 0.00130086 0.00113274 0.0013744 0.00130086 0.00119465 0.0012677 0.00187926 0.00129491 0.00184466 0.00127871 0.00129491 0.000443977 0.00127871 0.000469691 0.00184466 0.00127871 0.00175825 0.00116537 0.00127871 0.000469691 0.00116537 0.000572489 0.000443977 0.000279539 0.000469691 0.000302232 0.000279539 0.00212237 0.000302232 0.00211256 0.000469691 0.000302232 0.000572489 0.000352934 0.000302232 0.00211256 0.000352934 0.00209288 0.000572489 0.000352934 0.000708297 0.000442976 0.000352934 0.00209288 0.000442976 0.00206399 0.000708297 0.000442976 0.000844105 0.000538128 0.000442976 0.00206399 0.000538128 0.00203553 0.00137558 0.00111322 0.00156213 0.00126192 0.00111322 0.000850872 0.00126192 0.0007027 0.00156213 0.00126192 0.0017465 0.00130031 0.00126192 0.0007027 0.00130031 0.000561182 0.000850872 0.000536548 0.0007027 0.000443601 0.000536548 0.00203618 0.000443601 0.00206302 0.0007027 0.000443601 0.000561182 0.0003482 0.000443601 0.00206302 0.0003482 0.0020925 0.0017465 0.00130031 0.00184736 0.00129328 0.00130031 0.000561182 0.00129328 0.000473554 0.00184736 0.00129328 0.00187926 0.00129491 0.00129328 0.000473554 0.00129491 0.000443977 0.000561182 0.0003482 0.000473554 0.000286048 0.000473554 0.000286048 0.000443977 0.000279539 0.00143754 0.00110197 0.0014064 0.000822048 0.0014064 0.000822048 0.00140686 0.000542125 0.00140678 0.00054249 0.00140638 0.000822214 0.00140638 0.000822214 0.00143755 0.00110194 0.0019849 0.00143755 0.00198831 0.00153818 0.00143755 0.00110194 0.00153818 0.00135218 0.00198831 0.00153818 0.00198987 0.00179615 0.00153818 0.00135218 0.00179615 0.00160242 0.00140478 0.00042384 0.00140678 0.00054249 0.00140686 0.000542125 0.00140499 0.000422906 0.00119465 0.0012677 0.000927343 0.000982951 0.0012677 0.0013253 0.000982951 0.00119306 0.000927343 0.000982951 0.00066004 0.000628559 0.000982951 0.00119306 0.000628559 0.000959209 0.00066004 0.000628559 0.000448344 0.000390123 0.000628559 0.000959209 0.000390123 0.00091259 0.000448344 0.000390123 0.000236648 0.000296528 0.000390123 0.00091259 0.000296528 0.0009208 0.00091259 0.00195365 0.0009208 0.00194155 0.00195365 0.000846872 0.00194155 0.0013026 0.000236648 0.000296528 0.00023093 0.000254046 0.000296528 0.0009208 0.000254046 0.000858512 0.00023093 0.000254046 0.000225212 0.000264119 0.000254046 0.000858512 0.000264119 0.000637883 0.0009208 0.00194155 0.000858512 0.00168884 0.00194155 0.0013026 0.00168884 0.00160729 0.000858512 0.00168884 0.000637883 0.00117392 0.00168884 0.00160729 0.00117392 0.00178633 0.000225212 0.000264119 0.000256 0.000270439 0.000264119 0.000637883 0.000270439 0.000318043 0.000256 0.000270439 0.000286787 0.000265137 0.000270439 0.000318043 0.000265137 0.000171668 0.00119457 0.00126773 0.00137426 0.00130092 0.00137426 0.00130092 0.00149195 0.00120837 0.00130092 0.00113271 0.00120837 0.000844579 0.00149195 0.00120837 0.0015718 0.00117207 0.00120837 0.000844579 0.00117207 0.000714199 0.0015718 0.00117207 0.00162189 0.00115522 0.00117207 0.000714199 0.00115522 0.000688554 0.000714199 0.000165922 0.000688554 0.000235889 0.000165922 -0.000117751 0.000235889 -0.000216775 0.000965554 0.00133237 0.00110183 0.00121287 0.00110183 0.00121287 0.00132398 0.00112742 0.00178633 0.00229313 0.00160729 0.00209524 0.00160729 0.00209524 0.0013026 0.00191752 0.0013026 0.00191752 0.00160729 0.00209524 0.00160729 0.00209524 0.00178633 0.00229313 0.00132398 0.00112742 0.00110183 0.00121287 0.00110183 0.00121287 0.000965554 0.00133237 0.000341485 0.000591321 0.000340258 0.000590848 0.000591321 0.000899323 0.000590848 0.000900198 0.000340258 0.000590848 0.000336871 0.000589342 0.000590848 0.000900198 0.000589342 0.000901074 0.000336871 0.000589342 0.00033092 0.000589952 0.000589342 0.000901074 0.000589952 0.000901559 0.00033092 0.000589952 0.000315564 0.000608804 0.000589952 0.000901559 0.000608804 0.000902044 0.000339338 0.000615917 0.00036708 0.00059461 0.000615917 0.000892496 0.00059461 0.000877679 0.00036708 0.00059461 0.000370984 0.000616923 0.00059461 0.000877679 0.000616923 0.000862862 0.000422906 0.000630783 0.000409368 0.000597001 0.000630783 0.000838659 0.000597001 0.000855956 0.000409368 0.000597001 0.000387793 0.000589971 0.000597001 0.000855956 0.000589971 0.000873253 0.000387793 0.000589971 0.000367282 0.000591584 0.000589971 0.000873253 0.000591584 0.000882196 0.000367282 0.000591584 0.00033921 0.000615175 0.000591584 0.000882196 0.000615175 0.00089114 0.000315222 0.000608666 0.000330526 0.000589785 0.000608666 0.00090211 0.000589785 0.000901634 0.000330526 0.000589785 0.000336532 0.000589195 0.000589785 0.000901634 0.000589195 0.000901157 0.000336532 0.000589195 0.000340062 0.000590766 0.000589195 0.000901157 0.000590766 0.00090024 0.000340062 0.000590766 0.000341485 0.000591321 0.000590766 0.00090024 0.000591321 0.000899323 0.000171668 0.000399168 0.000244856 0.00043009 0.000399168 0.000729254 0.00043009 0.000753075 0.000244856 0.00043009 0.000318043 0.000566147 0.00043009 0.000753075 0.000566147 0.000814251 0.000729254 0.00134312 0.000753075 0.00134289 0.00134312 0.00196432 0.00134289 0.00194617 0.000753075 0.00134289 0.000814251 0.00135595 0.00134289 0.00194617 0.00135595 0.00189766 0.000318043 0.000566147 0.000244856 0.00043009 0.000566147 0.000814251 0.00043009 0.000753075 0.000244856 0.00043009 0.000171668 0.000399168 0.00043009 0.000753075 0.000399168 0.000729254 0.000814251 0.00135595 0.000753075 0.00134289 0.00135595 0.00189766 0.00134289 0.00194617 0.000753075 0.00134289 0.000729254 0.00134312 0.00134289 0.00194617 0.00134312 0.00196432 0.000578816 0.00123735 0.000576969 0.00123592 0.00123735 0.00187926 0.00123592 0.00186196 0.000576969 0.00123592 0.000575123 0.00122362 0.00123592 0.00186196 0.00122362 0.00184466 0.000575123 0.00122362 0.000586053 0.00120507 0.00122362 0.00184466 0.00120507 0.00180146 0.000586053 0.00120507 0.000596984 0.00117762 0.00120507 0.00180146 0.00117762 0.00175825 0.000684378 0.00112326 0.000640958 0.00115309 0.00112326 0.00156213 0.00115309 0.00165432 0.000640958 0.00115309 0.000597537 0.00118119 0.00115309 0.00165432 0.00118119 0.0017465 0.000597537 0.00118119 0.000586342 0.00120598 0.00118119 0.0017465 0.00120598 0.00179693 0.000586342 0.00120598 0.000575146 0.00122299 0.00120598 0.00179693 0.00122299 0.00184736 0.000575146 0.00122299 0.000576981 0.00123563 0.00122299 0.00184736 0.00123563 0.00186331 0.000576981 0.00123563 0.000578816 0.00123735 0.00123563 0.00186331 0.00123735 0.0018