# vtk DataFile Version 3.0
#This file was generated by the deal.II library on 2023/2/27 at 0:39:07
ASCII
DATASET UNSTRUCTURED_GRID

FIELD FieldData 2
CYCLE 1 1 int
24
TIME 1 1 double
0.048
POINTS 3304 double
-1.41421 1.22465e-16 1.41421
-2 0 0
-1.62132 0.707107 1.62132
-2.29289 0.707107 2.80798e-16
-1.62132 0.707107 1.62132
-2.29289 0.707107 2.80798e-16
-2.12132 1 2.12132
-3 1 0
-2.12132 -1 2.12132
-3 -1 0
-1.62132 -0.707107 1.62132
-2.29289 -0.707107 2.80798e-16
-1.62132 -0.707107 1.62132
-2.29289 -0.707107 2.80798e-16
-1.41421 1.22465e-16 1.41421
-2 0 0
-2.82843 0 2.82843
-4 0 0
-2.62132 -0.707107 2.62132
-3.70711 -0.707107 4.5399e-16
-2.62132 -0.707107 2.62132
-3.70711 -0.707107 4.5399e-16
-2.12132 -1 2.12132
-3 -1 0
-2.12132 1 2.12132
-3 1 0
-2.62132 0.707107 2.62132
-3.70711 0.707107 4.5399e-16
-2.62132 0.707107 2.62132
-3.70711 0.707107 4.5399e-16
-2.82843 0 2.82843
-4 0 0
-2 0 0
-1.41421 1.22465e-16 -1.41421
-2.29289 0.707107 2.80798e-16
-1.62132 0.707107 -1.62132
-2.29289 0.707107 2.80798e-16
-1.62132 0.707107 -1.62132
-3 1 0
-2.12132 1 -2.12132
-3 -1 0
-2.12132 -1 -2.12132
-2.29289 -0.707107 2.80798e-16
-1.62132 -0.707107 -1.62132
-2.29289 -0.707107 2.80798e-16
-1.62132 -0.707107 -1.62132
-2 0 0
-1.41421 1.22465e-16 -1.41421
-4 0 0
-2.82843 0 -2.82843
-3.70711 -0.707107 4.5399e-16
-2.62132 -0.707107 -2.62132
-3.70711 -0.707107 4.5399e-16
-2.62132 -0.707107 -2.62132
-3 -1 0
-2.12132 -1 -2.12132
-3 1 0
-2.12132 1 -2.12132
-3.70711 0.707107 4.5399e-16
-2.62132 0.707107 -2.62132
-3.70711 0.707107 4.5399e-16
-2.62132 0.707107 -2.62132
-4 0 0
-2.82843 0 -2.82843
2.82843 0 2.82843
1.53073 0 3.69552
2.7746 -0.382683 2.7746
1.5016 -0.382683 3.62519
2.7746 -0.382683 2.7746
1.5016 -0.382683 3.62519
2.62132 -0.707107 2.62132
1.41865 -0.707107 3.42492
2.62132 -0.707107 2.62132
1.41865 -0.707107 3.42492
2.39192 -0.92388 2.39192
1.2945 -0.92388 3.12519
2.39192 0.92388 2.39192
1.2945 0.92388 3.12519
2.62132 0.707107 2.62132
1.41865 0.707107 3.42492
2.62132 0.707107 2.62132
1.41865 0.707107 3.42492
2.7746 0.382683 2.7746
1.5016 0.382683 3.62519
-1.53073 0 3.69552
-2.82843 0 2.82843
-1.5016 -0.382683 3.62519
-2.7746 -0.382683 2.7746
2.40268e-16 -0.382683 3.92388
-1.5016 -0.382683 3.62519
2.26995e-16 -0.707107 3.70711
-1.41865 -0.707107 3.42492
-1.5016 -0.382683 3.62519
-2.7746 -0.382683 2.7746
-1.41865 -0.707107 3.42492
-2.62132 -0.707107 2.62132
2.26995e-16 -0.707107 3.70711
-1.41865 -0.707107 3.42492
2.0713e-16 -0.92388 3.38268
-1.2945 -0.92388 3.12519
-1.41865 -0.707107 3.42492
-2.62132 -0.707107 2.62132
-1.2945 -0.92388 3.12519
-2.39192 -0.92388 2.39192
2.0713e-16 -0.92388 3.38268
-1.2945 -0.92388 3.12519
0 -1 3
-1.14805 -1 2.77164
-1.2945 -0.92388 3.12519
-2.39192 -0.92388 2.39192
-1.14805 -1 2.77164
-2.12132 -1 2.12132
-1.14805 1 2.77164
-2.12132 1 2.12132
-1.2945 0.92388 3.12519
-2.39192 0.92388 2.39192
2.0713e-16 0.92388 3.38268
-1.2945 0.92388 3.12519
2.26995e-16 0.707107 3.70711
-1.41865 0.707107 3.42492
-1.2945 0.92388 3.12519
-2.39192 0.92388 2.39192
-1.41865 0.707107 3.42492
-2.62132 0.707107 2.62132
0.877452 0.707107 2.11836
1.40399e-16 0.707107 2.29289
1.0016 0.92388 2.41809
1.60264e-16 0.92388 2.61732
1.0016 0.92388 2.41809
1.60264e-16 0.92388 2.61732
1.14805 1 2.77164
0 1 3
1.14805 -1 2.77164
0 -1 3
1.0016 -0.92388 2.41809
1.60264e-16 -0.92388 2.61732
3.12519 -0.92388 1.2945
2.39192 -0.92388 2.39192
2.77164 -1 1.14805
2.12132 -1 2.12132
1.40399e-16 0.707107 2.29289
-0.877452 0.707107 2.11836
1.60264e-16 0.92388 2.61732
-1.0016 0.92388 2.41809
-0.877452 0.707107 2.11836
-1.62132 0.707107 1.62132
-1.0016 0.92388 2.41809
-1.85072 0.92388 1.85072
1.60264e-16 0.92388 2.61732
-1.0016 0.92388 2.41809
0 1 3
-1.14805 1 2.77164
-1.0016 0.92388 2.41809
-1.85072 0.92388 1.85072
-1.14805 1 2.77164
-2.12132 1 2.12132
0 -1 3
-1.14805 -1 2.77164
1.60264e-16 -0.92388 2.61732
-1.0016 -0.92388 2.41809
-1.14805 -1 2.77164
-2.12132 -1 2.12132
-1.0016 -0.92388 2.41809
-1.85072 -0.92388 1.85072
1.60264e-16 -0.92388 2.61732
-1.0016 -0.92388 2.41809
1.40399e-16 -0.707107 2.29289
-0.877452 -0.707107 2.11836
-1.0016 -0.92388 2.41809
-1.85072 -0.92388 1.85072
-0.877452 -0.707107 2.11836
-1.62132 -0.707107 1.62132
2.77164 1 1.14805
2.12132 1 2.12132
3.12519 0.92388 1.2945
2.39192 0.92388 2.39192
3.12519 0.92388 1.2945
2.39192 0.92388 2.39192
3.42492 0.707107 1.41865
2.62132 0.707107 2.62132
3.42492 0.707107 1.41865
2.62132 0.707107 2.62132
3.62519 0.382683 1.5016
2.7746 0.382683 2.7746
3.62519 0.382683 1.5016
2.7746 0.382683 2.7746
3.69552 0 1.53073
2.82843 0 2.82843
-0.765367 1.22465e-16 1.84776
-1.41421 1.22465e-16 1.41421
-0.794497 0.382683 1.91809
-1.46804 0.382683 1.46804
1.27126e-16 0.382683 2.07612
-0.794497 0.382683 1.91809
1.40399e-16 0.707107 2.29289
-0.877452 0.707107 2.11836
-0.794497 0.382683 1.91809
-1.46804 0.382683 1.46804
-0.877452 0.707107 2.11836
-1.62132 0.707107 1.62132
2.26995e-16 0.707107 3.70711
-1.41865 0.707107 3.42492
2.40268e-16 0.382683 3.92388
-1.5016 0.382683 3.62519
-1.41865 0.707107 3.42492
-2.62132 0.707107 2.62132
-1.5016 0.382683 3.62519
-2.7746 0.382683 2.7746
2.40268e-16 0.382683 3.92388
-1.5016 0.382683 3.62519
0 0 4
-1.53073 0 3.69552
-1.5016 0.382683 3.62519
-2.7746 0.382683 2.7746
-1.53073 0 3.69552
-2.82843 0 2.82843
2.11836 0.707107 0.877452
1.62132 0.707107 1.62132
2.41809 0.92388 1.0016
1.85072 0.92388 1.85072
2.41809 0.92388 1.0016
1.85072 0.92388 1.85072
2.77164 1 1.14805
2.12132 1 2.12132
2.77164 -1 1.14805
2.12132 -1 2.12132
2.41809 -0.92388 1.0016
1.85072 -0.92388 1.85072
0.877452 -0.707107 2.11836
1.40399e-16 -0.707107 2.29289
0.794497 -0.382683 1.91809
1.27126e-16 -0.382683 2.07612
0.794497 -0.382683 1.91809
1.27126e-16 -0.382683 2.07612
0.765367 1.22465e-16 1.84776
0 0 2
1.40399e-16 -0.707107 2.29289
-0.877452 -0.707107 2.11836
1.27126e-16 -0.382683 2.07612
-0.794497 -0.382683 1.91809
-0.877452 -0.707107 2.11836
-1.62132 -0.707107 1.62132
-0.794497 -0.382683 1.91809
-1.46804 -0.382683 1.46804
1.27126e-16 -0.382683 2.07612
-0.794497 -0.382683 1.91809
0 0 2
-0.765367 1.22465e-16 1.84776
-0.794497 -0.382683 1.91809
-1.46804 -0.382683 1.46804
-0.765367 1.22465e-16 1.84776
-1.41421 1.22465e-16 1.41421
-6.80984e-16 -0.707107 -3.70711
1.41865 -0.707107 -3.42492
-6.21389e-16 -0.92388 -3.38268
1.2945 -0.92388 -3.12519
-6.21389e-16 0.92388 -3.38268
1.2945 0.92388 -3.12519
-6.80984e-16 0.707107 -3.70711
1.41865 0.707107 -3.42492
-1.41421 1.22465e-16 -1.41421
-0.765367 1.22465e-16 -1.84776
-1.46804 0.382683 -1.46804
-0.794497 0.382683 -1.91809
-0.765367 1.22465e-16 -1.84776
0 0 -2
-0.794497 0.382683 -1.91809
-3.81377e-16 0.382683 -2.07612
-1.46804 0.382683 -1.46804
-0.794497 0.382683 -1.91809
-1.62132 0.707107 -1.62132
-0.877452 0.707107 -2.11836
-0.794497 0.382683 -1.91809
-3.81377e-16 0.382683 -2.07612
-0.877452 0.707107 -2.11836
-4.21198e-16 0.707107 -2.29289
-1.62132 0.707107 -1.62132
-0.877452 0.707107 -2.11836
-1.85072 0.92388 -1.85072
-1.0016 0.92388 -2.41809
-0.877452 0.707107 -2.11836
-4.21198e-16 0.707107 -2.29289
-1.0016 0.92388 -2.41809
-4.80793e-16 0.92388 -2.61732
-1.85072 0.92388 -1.85072
-1.0016 0.92388 -2.41809
-2.12132 1 -2.12132
-1.14805 1 -2.77164
-1.0016 0.92388 -2.41809
-4.80793e-16 0.92388 -2.61732
-1.14805 1 -2.77164
0 1 -3
-2.12132 -1 -2.12132
-1.14805 -1 -2.77164
-1.85072 -0.92388 -1.85072
-1.0016 -0.92388 -2.41809
-1.14805 -1 -2.77164
0 -1 -3
-1.0016 -0.92388 -2.41809
-4.80793e-16 -0.92388 -2.61732
-1.85072 -0.92388 -1.85072
-1.0016 -0.92388 -2.41809
-1.62132 -0.707107 -1.62132
-0.877452 -0.707107 -2.11836
-1.0016 -0.92388 -2.41809
-4.80793e-16 -0.92388 -2.61732
-0.877452 -0.707107 -2.11836
-4.21198e-16 -0.707107 -2.29289
-1.62132 -0.707107 -1.62132
-0.877452 -0.707107 -2.11836
-1.46804 -0.382683 -1.46804
-0.794497 -0.382683 -1.91809
-0.877452 -0.707107 -2.11836
-4.21198e-16 -0.707107 -2.29289
-0.794497 -0.382683 -1.91809
-3.81377e-16 -0.382683 -2.07612
-1.46804 -0.382683 -1.46804
-0.794497 -0.382683 -1.91809
-1.41421 1.22465e-16 -1.41421
-0.765367 1.22465e-16 -1.84776
-0.794497 -0.382683 -1.91809
-3.81377e-16 -0.382683 -2.07612
-0.765367 1.22465e-16 -1.84776
0 0 -2
-2.82843 0 -2.82843
-1.53073 0 -3.69552
-2.7746 -0.382683 -2.7746
-1.5016 -0.382683 -3.62519
-1.53073 0 -3.69552
0 0 -4
-1.5016 -0.382683 -3.62519
-7.20805e-16 -0.382683 -3.92388
-2.7746 -0.382683 -2.7746
-1.5016 -0.382683 -3.62519
-2.62132 -0.707107 -2.62132
-1.41865 -0.707107 -3.42492
-1.5016 -0.382683 -3.62519
-7.20805e-16 -0.382683 -3.92388
-1.41865 -0.707107 -3.42492
-6.80984e-16 -0.707107 -3.70711
-2.62132 -0.707107 -2.62132
-1.41865 -0.707107 -3.42492
-2.39192 -0.92388 -2.39192
-1.2945 -0.92388 -3.12519
-1.41865 -0.707107 -3.42492
-6.80984e-16 -0.707107 -3.70711
-1.2945 -0.92388 -3.12519
-6.21389e-16 -0.92388 -3.38268
-2.39192 -0.92388 -2.39192
-1.2945 -0.92388 -3.12519
-2.12132 -1 -2.12132
-1.14805 -1 -2.77164
-1.2945 -0.92388 -3.12519
-6.21389e-16 -0.92388 -3.38268
-1.14805 -1 -2.77164
0 -1 -3
-2.12132 1 -2.12132
-1.14805 1 -2.77164
-2.39192 0.92388 -2.39192
-1.2945 0.92388 -3.12519
-1.14805 1 -2.77164
0 1 -3
-1.2945 0.92388 -3.12519
-6.21389e-16 0.92388 -3.38268
-2.39192 0.92388 -2.39192
-1.2945 0.92388 -3.12519
-2.62132 0.707107 -2.62132
-1.41865 0.707107 -3.42492
-1.2945 0.92388 -3.12519
-6.21389e-16 0.92388 -3.38268
-1.41865 0.707107 -3.42492
-6.80984e-16 0.707107 -3.70711
-2.62132 0.707107 -2.62132
-1.41865 0.707107 -3.42492
-2.7746 0.382683 -2.7746
-1.5016 0.382683 -3.62519
-1.41865 0.707107 -3.42492
-6.80984e-16 0.707107 -3.70711
-1.5016 0.382683 -3.62519
-7.20805e-16 0.382683 -3.92388
-2.7746 0.382683 -2.7746
-1.5016 0.382683 -3.62519
-2.82843 0 -2.82843
-1.53073 0 -3.69552
-1.5016 0.382683 -3.62519
-7.20805e-16 0.382683 -3.92388
-1.53073 0 -3.69552
0 0 -4
0 0 -4
1.53073 0 -3.69552
-7.20805e-16 -0.382683 -3.92388
1.5016 -0.382683 -3.62519
1.53073 0 -3.69552
2.82843 0 -2.82843
1.5016 -0.382683 -3.62519
2.7746 -0.382683 -2.7746
-7.20805e-16 -0.382683 -3.92388
1.5016 -0.382683 -3.62519
-6.80984e-16 -0.707107 -3.70711
1.41865 -0.707107 -3.42492
1.5016 -0.382683 -3.62519
[...]
POINT_DATA 3304
SCALARS U double 1
LOOKUP_TABLE default
-0.00239406 -0.00239508 -0.00239143 -0.00240319 -0.00239143 -0.00240319 -0.00238366 -0.00242192 -0.00239059 -0.00242005 -0.00240177 -0.00240139 -0.00240177 -0.00240139 -0.00239406 -0.00239508 -0.00237488 -0.00244518 -0.00237974 -0.00243986 -0.00237974 -0.00243986 -0.00239059 -0.00242005 -0.00238366 -0.00242192 -0.00238149 -0.0024397 -0.00238149 -0.0024397 -0.00237488 -0.00244518 -0.00239508 -0.00242712 -0.00240319 -0.00239454 -0.00240319 -0.00239454 -0.00242192 -0.00232621 -0.00242005 -0.00232694 -0.00240139 -0.00239419 -0.00240139 -0.00239419 -0.00239508 -0.00242712 -0.00244518 -0.00224306 -0.00243986 -0.00225917 -0.00243986 -0.00225917 -0.00242005 -0.00232694 -0.00242192 -0.00232621 -0.0024397 -0.00225811 -0.0024397 -0.00225811 -0.00244518 -0.00224306 0.000970902 0.00226561 0.00146289 0.00290326 0.00146289 0.00290326 0.00310722 0.00436562 0.00310722 0.00436562 0.00515106 0.00585009 0.00533544 0.00582145 0.00357614 0.0043723 0.00357614 0.0043723 0.00183697 0.00297148 -0.00246529 -0.00237488 -0.00246149 -0.00237731 -0.00185884 -0.00246149 -0.00178964 -0.00244079 -0.00246149 -0.00237731 -0.00244079 -0.00237974 -0.00178964 -0.00244079 -0.00177581 -0.00242941 -0.00244079 -0.00237974 -0.00242941 -0.00238516 -0.00177581 -0.00242941 -0.00173936 -0.00242249 -0.00242941 -0.00238516 -0.00242249 -0.00239059 -0.00245751 -0.00238366 -0.0024497 -0.00238258 -0.00183433 -0.0024497 -0.00176603 -0.00243358 -0.0024497 -0.00238258 -0.00243358 -0.00238149 0.00509286 -0.00188383 0.00597822 -0.00186736 0.00597822 -0.00186736 0.0065353 -0.00188613 0.00648487 -0.00173936 0.00587957 -0.001777 0.00606559 0.00515106 0.00638508 0.00737934 -0.00188383 -0.00245499 -0.00186736 -0.00245538 -0.00245499 -0.00239143 -0.00245538 -0.00238755 -0.00186736 -0.00245538 -0.00188613 -0.00245751 -0.00245538 -0.00238755 -0.00245751 -0.00238366 -0.00173936 -0.00242249 -0.001777 -0.00240631 -0.00242249 -0.00239059 -0.00240631 -0.00239618 -0.001777 -0.00240631 -0.00213001 -0.00233975 -0.00240631 -0.00239618 -0.00233975 -0.00240177 0.00646373 0.00735096 0.00616947 0.00533544 0.00616947 0.00533544 0.0050618 0.00357614 0.0050618 0.00357614 0.00438631 0.00183697 0.00438631 0.00183697 0.00385307 0.000970902 -0.00239511 -0.00239406 -0.00245381 -0.00239275 -0.00183116 -0.00245381 -0.00188383 -0.00245499 -0.00245381 -0.00239275 -0.00245499 -0.00239143 -0.00176603 -0.00243358 -0.00181813 -0.00244423 -0.00243358 -0.00238149 -0.00244423 -0.00237819 -0.00181813 -0.00244423 -0.00187336 -0.00246529 -0.00244423 -0.00237819 -0.00246529 -0.00237488 0.00587266 0.0102776 0.00607191 0.00950599 0.00607191 0.00950599 0.00646373 0.00735096 0.00638508 0.00737934 0.00617306 0.00974144 0.00486342 -0.00213001 0.0040656 -0.00222535 0.0040656 -0.00222535 0.00392946 -0.00209313 -0.00213001 -0.00233975 -0.00222535 -0.00233025 -0.00233975 -0.00240177 -0.00233025 -0.00239792 -0.00222535 -0.00233025 -0.00209313 -0.00239511 -0.00233025 -0.00239792 -0.00239511 -0.00239406 -0.00283457 0.00623352 -0.00299074 0.00813838 -0.00299377 0.00814274 -0.00283902 0.00624018 -0.00242712 -0.00232159 -0.00241083 -0.00233945 -0.00232159 -0.00257876 -0.00233945 -0.00261554 -0.00241083 -0.00233945 -0.00239454 -0.00235913 -0.00233945 -0.00261554 -0.00235913 -0.00270107 -0.00239454 -0.00235913 -0.00236037 -0.00241969 -0.00235913 -0.00270107 -0.00241969 -0.00282388 -0.00236037 -0.00241969 -0.00232621 -0.00241061 -0.00241969 -0.00282388 -0.00241061 -0.0032226 -0.00232694 -0.0024104 -0.00236057 -0.0024203 -0.0024104 -0.00322132 -0.0024203 -0.00282447 -0.00236057 -0.0024203 -0.00239419 -0.00236042 -0.0024203 -0.00282447 -0.00236042 -0.00270318 -0.00239419 -0.00236042 -0.00241066 -0.00234018 -0.00236042 -0.00270318 -0.00234018 -0.00261675 -0.00241066 -0.00234018 -0.00242712 -0.00232159 -0.00234018 -0.00261675 -0.00232159 -0.00257876 -0.00224306 -0.00264618 -0.00225111 -0.00264839 -0.00264618 -0.00277762 -0.00264839 -0.00272909 -0.00225111 -0.00264839 -0.00225917 -0.00260722 -0.00264839 -0.00272909 -0.00260722 -0.00283457 -0.00225917 -0.00260722 -0.00229306 -0.00252384 -0.00260722 -0.00283457 -0.00252384 -0.00299074 -0.00229306 -0.00252384 -0.00232694 -0.0024104 -0.00252384 -0.00299074 -0.0024104 -0.00322132 -0.00232621 -0.00241061 -0.00229216 -0.00252489 -0.00241061 -0.0032226 -0.00252489 -0.00299377 -0.00229216 -0.00252489 -0.00225811 -0.00260891 -0.00252489 -0.00299377 -0.00260891 -0.00283902 -0.00225811 -0.00260891 -0.00225058 -0.00264932 -0.00260891 -0.00283902 -0.00264932 -0.00273153 -0.00225058 -0.00264932 -0.00224306 -0.00264618 -0.00264932 -0.00273153 -0.00264618 -0.00277762 -0.00277762 0.00389554 -0.00272909 0.00378214 0.00389554 0.00126586 0.00378214 0.00177285 -0.00272909 0.00378214 -0.00283457 0.00623352 0.00378214 0.00177285 0.00623352 0.00231835 -0.00283902 0.00624018 -0.00273153 0.00378576 0.00624018 0.00233373 0.00378576 0.0017818 -0.00273153 0.00378576 -0.00277762 0.00389554 0.00378576 0.0017818 0.00389554 0.00126586 0.00582145 0.00260457 0.00509688 0.00272954 0.00260457 -0.00183433 0.00272954 -0.00180018 0.00509688 0.00272954 0.0043723 0.00275666 0.00272954 -0.00180018 0.00275666 -0.00176603 -0.00187336 -0.00216932 -0.00180686 -0.00232085 -0.00216932 -0.00246529 -0.00232085 -0.00246339 -0.00180686 -0.00232085 -0.00185884 -0.00216016 -0.00232085 -0.00246339 -0.00216016 -0.00246149 -0.00188613 -0.00217182 -0.00181864 -0.00223958 -0.00217182 -0.00245751 -0.00223958 -0.0024536 -0.00181864 -0.00223958 -0.00183433 -0.00214201 -0.00223958 -0.0024536 -0.00214201 -0.0024497 0.00585009 0.00260064 0.00626841 0.00249329 0.00260064 -0.00177581 0.00249329 -0.00175759 0.00626841 0.00249329 0.00648487 0.00237275 0.00249329 -0.00175759 0.00237275 -0.00173936 0.00226561 0.00288194 0.00258443 0.00276927 0.00258443 0.00276927 0.00290326 0.00278925 -0.00075288 0.0019854 -0.000739927 0.00163411 0.0019854 0.00438631 0.00163411 0.00411969 -0.000739927 0.00163411 -0.000739214 0.00153337 0.00163411 0.00411969 0.00153337 0.00385307 0.00735096 0.00759582 0.0063432 0.00658935 0.00759582 0.0065353 0.00658935 0.00629329 0.0063432 0.00658935 0.00533544 0.00557845 0.00658935 0.00629329 0.00557845 0.00582145 -0.00209313 -0.00224412 -0.00185682 -0.00230804 -0.00224412 -0.00239511 -0.00230804 -0.00242446 -0.00185682 -0.00230804 -0.00183116 -0.00214249 -0.00230804 -0.00242446 -0.00214249 -0.00245381 0.00290326 0.00278925 0.00363444 0.00279609 0.00278925 -0.00185884 0.00279609 -0.00182424 0.00363444 0.00279609 0.00436562 0.00281217 0.00279609 -0.00182424 0.00281217 -0.00178964 -0.000980034 0.00340067 -0.000664853 0.00385759 0.00340067 0.00484278 0.00385759 0.00551981 -0.000664853 0.00385759 -0.000445444 0.00412885 0.00385759 0.00551981 0.00412885 0.00606559 0.00436562 0.00281217 0.00510785 0.00274751 0.00281217 -0.00178964 0.00274751 -0.00178273 0.00510785 0.00274751 0.00585009 0.00260064 0.00274751 -0.00178273 0.00260064 -0.00177581 0.0065353 0.00232458 0.00629329 0.00244635 0.00232458 -0.00188613 0.00244635 -0.00181864 0.00629329 0.00244635 0.00582145 0.00260457 0.00244635 -0.00181864 0.00260457 -0.00183433 0.00392946 0.000918163 0.00415295 0.000997373 0.000918163 -0.00209313 0.000997373 -0.00185682 0.00415295 0.000997373 0.00441654 0.00118507 0.000997373 -0.00185682 0.00118507 -0.00183116 0.0043723 0.00275666 0.00367189 0.00277354 0.00275666 -0.00176603 0.00277354 -0.00179208 0.00367189 0.00277354 0.00297148 0.00282546 0.00277354 -0.00179208 0.00282546 -0.00181813 -0.000445444 0.00412885 -0.000430313 0.00401007 0.00412885 0.00606559 0.00401007 0.00622533 -0.000430313 0.00401007 -0.000691913 0.00332428 0.00401007 0.00622533 0.00332428 0.00638508 0.00441654 0.00118507 0.00475184 0.00134495 0.00118507 -0.00183116 0.00134495 -0.0018575 0.00475184 0.00134495 0.00509286 0.00160451 0.00134495 -0.0018575 0.00160451 -0.00188383 -0.000701174 0.00335552 -0.000452137 0.00407518 0.00335552 0.00646373 0.00407518 0.0063166 -0.000452137 0.00407518 -0.000476703 0.00420841 0.00407518 0.0063166 0.00420841 0.00616947 -0.000739214 0.00153337 -0.000846417 0.00150882 0.00153337 0.00385307 0.00150882 0.00390276 -0.000846417 0.00150882 -0.000973646 0.00180402 0.00150882 0.00390276 0.00180402 0.00406363 -0.000476703 0.00420841 -0.000593172 0.00390451 0.00420841 0.00616947 0.00390451 0.00561564 -0.000593172 0.00390451 -0.000620081 0.00337578 0.00390451 0.00561564 0.00337578 0.0050618 0.00385307 0.00241198 0.00390276 0.00253283 0.00241198 0.000970902 0.00253283 0.00121689 0.00390276 0.00253283 0.00406363 0.00276033 0.00253283 0.00121689 0.00276033 0.00146289 0.00297148 0.00282546 0.00249549 0.0028645 0.00282546 -0.00181813 0.0028645 -0.00184575 0.0028645 -0.00184575 0.00288194 -0.00187336 0.00914357 0.00587957 0.00908976 0.00548417 0.00908976 0.00548417 0.00862054 0.00486342 0.00126586 0.0023941 0.00151935 0.00263262 0.0023941 0.00328904 0.00263262 0.00363846 0.00151935 0.00263262 0.00177285 0.00307451 0.00263262 0.00363846 0.00307451 0.00417153 0.00328904 0.00126462 0.00363846 0.00137875 0.00126462 -0.000739214 0.00137875 -0.000846417 0.00363846 0.00137875 0.00417153 0.00157589 0.00137875 -0.000846417 0.00157589 -0.000973646 0.00515106 0.00550058 0.0062652 0.00658565 0.00550058 0.00585009 0.00658565 0.00626841 0.0062652 0.00658565 0.00737934 0.00764064 0.00658565 0.00626841 0.00764064 0.00648487 0.00337578 0.0050618 0.0027085 0.00472405 0.0027085 0.00472405 0.0019854 0.00438631 0.00177285 0.00307451 0.0020456 0.00340021 0.00307451 0.00417153 0.00340021 0.00447464 0.0020456 0.00340021 0.00231835 0.0039779 0.00340021 0.00447464 0.0039779 0.00470251 0.00417153 0.00157589 0.00447464 0.00166782 0.00157589 -0.000973646 0.00166782 -0.00099836 0.00447464 0.00166782 0.00470251 0.00165335 0.00166782 -0.00099836 0.00165335 -0.000980034 0.00183697 0.00240422 0.00140394 0.00176723 0.00240422 0.00297148 0.00176723 0.00249549 0.00140394 0.00176723 0.000970902 0.00161825 0.00176723 0.00249549 0.00161825 0.00226561 0.0102776 0.00873338 0.00989182 0.00916647 0.00873338 0.00509286 0.00916647 0.00553554 0.00989182 0.00916647 0.00950599 0.00901223 0.00916647 0.00553554 0.00901223 0.00597822 0.00950599 0.00901223 0.00842847 0.00850021 0.00901223 0.00597822 0.00850021 0.00625676 0.00842847 0.00850021 0.00735096 0.00759582 0.00850021 0.00625676 0.00759582 0.0065353 0.00737934 0.00764064 0.00856039 0.00861463 0.00764064 0.00648487 0.00861463 0.00618222 0.00856039 0.00861463 0.00974144 0.00914357 0.00861463 0.00618222 0.00914357 0.00587957 0.00587957 0.00205128 0.00548417 0.00151621 0.00205128 -0.001777 0.00151621 -0.0019535 0.00548417 0.00151621 0.00486342 0.00136671 0.00151621 -0.0019535 0.00136671 -0.00213001 0.00233373 0.00397217 0.00205777 0.00339262 0.00397217 0.00464989 0.00339262 0.00441607 0.00205777 0.00339262 0.0017818 0.00305741 0.00339262 0.00441607 0.00305741 0.00412896 0.0017818 0.00305741 0.00152383 0.00262123 0.00305741 0.00412896 0.00262123 0.00361379 0.00152383 0.00262123 0.00126586 0.0023941 0.00262123 0.00361379 0.0023941 0.00328904 0.00412896 0.00160085 0.00361379 0.0014177 0.00160085 -0.00075288 0.0014177 -0.000739927 0.00361379 0.0014177 0.00328904 0.00126462 0.0014177 -0.000739927 0.00126462 -0.000739214 -0.00257876 -0.000711252 -0.00259715 -0.000750876 -0.000711252 0.00325045 -0.000750876 0.0031705 -0.00259715 -0.000750876 -0.00261554 -0.000765019 -0.000750876 0.0031705 -0.000765019 0.00348935 0.00484278 0.00361902 0.00551981 0.00458762 0.00361902 0.00310722 0.00458762 0.00412914 0.00551981 0.00458762 0.00606559 0.00560833 0.00458762 0.00412914 0.00560833 0.00515106 0.00325045 0.00920506 0.0031705 0.00897219 0.00920506 0.0112015 0.00897219 0.0117135 0.0031705 0.00897219 0.00348935 0.00893428 0.00897219 0.0117135 0.00893428 0.0120304 -0.00261554 -0.000765019 -0.0026583 -0.00069055 -0.000765019 0.00348935 -0.00069055 0.00479547 -0.0026583 -0.00069055 -0.00270107 -0.000447169 -0.00069055 0.00479547 -0.000447169 0.00548651 0.00348935 0.00893428 0.00479547 0.00832883 0.00893428 0.0120304 0.00832883 0.012738 0.00479547 0.00832883 0.00548651 0.0079596 0.00832883 0.012738 0.0079596 0.012713 0.00678093 0.00392946 0.00693886 0.00415295 0.00693886 0.00415295 0.00734439 0.00441654 0.00734439 0.00441654 0.00806338 0.00475184 0.0099745 0.00806338 0.0102776 0.00873338 0.00806338 0.00475184 0.00873338 0.00509286 0.00406363 0.00276033 0.00432274 0.00298022 0.00276033 0.00146289 0.00298022 0.00228505 0.00298022 0.00228505 0.00361902 0.00310722 0.00195012 0.00587266 0.0017743 0.00597228 0.0017743 0.00597228 0.00185028 0.00607191 -0.00270107 -0.000447169 -0.00276247 0.000856401 -0.000447169 0.00548651 0.000856401 0.00602596 -0.00276247 0.000856401 -0.00282388 0.00207277 0.000856401 0.00602596 0.00207277 0.00689639 0.00185028 0.00607191 0.00248454 0.00626782 0.00248454 0.00626782 0.00335552 0.00646373 0.00548651 0.0079596 0.00602596 0.00825913 0.0079596 0.012713 0.00825913 0.01107 0.00602596 0.00825913 0.00689639 0.00818025 0.00825913 0.01107 0.00818025 0.00997445 0.00332428 0.00638508 0.00245429 0.00627907 0.00245429 0.00627907 0.00180765 0.00617306 -0.00282388 0.00207277 -0.00302324 0.00245962 0.00207277 0.00689639 0.00245962 0.006403 -0.00302324 0.00245962 -0.0032226 0.00276834 0.00245962 0.006403 0.00276834 0.00696401 0.00180765 0.00617306 0.00177672 0.00596863 0.00177672 0.00596863 0.00196725 0.00586415 0.00617306 0.00795725 0.00596863 0.00892263 0.00795725 0.00974144 0.00892263 0.0101898 0.00596863 0.00892263 0.00586415 0.00893908 0.00892263 0.0101898 0.00893908 0.0103277 0.0103277 0.00862054 0.0100247 0.00785059 0.00862054 0.00486342 0.00785059 0.00446451 0.00785059 0.00446451 0.00715948 0.0040656 0.00689639 0.00818025 0.006403 0.00759012 0.00818025 0.00997445 0.00759012 0.00940034 0.006403 0.00759012 0.00696401 0.00699669 0.00759012 0.00940034 0.00699669 0.00838704 0.00715948 0.0040656 0.00681357 0.00399753 0.00681357 0.00399753 0.00678093 0.00392946 -0.00322132 0.00276819 -0.00302289 0.0024597 0.00276819 0.00696241 0.0024597 0.00640278 -0.00302289 0.0024597 -0.00282447 0.00207308 0.0024597 0.00640278 0.00207308 0.0068976 0.00696241 0.00699386 0.00640278 0.00758969 0.00699386 0.00838337 0.00758969 0.00939974 0.00640278 0.00758969 0.0068976 0.00818225 0.00758969 0.00939974 0.00818225 0.00997695 0.00265433 0.00432274 0.00340067 0.00484278 -0.00105398 0.00131072 -0.00104186 0.00145081 0.00131072 0.00424668 0.00145081 0.00442052 -0.00104186 0.00145081 -0.00101 0.0017813 0.00145081 0.00442052 0.0017813 0.00489181 0.00424668 0.00738806 0.00442052 0.00752805 0.00738806 0.00920846 0.00752805 0.00931492 0.00442052 0.00752805 0.00489181 0.00791977 0.00752805 0.00931492 0.00791977 0.00957676 -0.00101 0.0017813 -0.000975064 0.00202659 0.0017813 0.00489181 0.00202659 0.00541583 -0.000975064 0.00202659 -0.00107691 0.00195012 0.00202659 0.00541583 0.00195012 0.00587266 0.00489181 0.00791977 0.00541583 0.00826036 0.00791977 0.00957676 0.00826036 0.0099745 0.00541583 0.00826036 0.00587266 0.00807515 0.00826036 0.0099745 0.00807515 0.0102776 -0.00110832 0.00196725 -0.000996668 0.0020331 0.00196725 0.00586415 0.0020331 0.00550746 -0.000996668 0.0020331 -0.00102534 0.00179581 0.0020331 0.00550746 0.00179581 0.00494672 0.00586415 0.00893908 0.00550746 0.00847301 0.00893908 0.0103277 0.00847301 0.0100247 0.00550746 0.00847301 0.00494672 0.00798171 0.00847301 0.0100247 0.00798171 0.00958378 -0.00102534 0.00179581 -0.00104915 0.00145977 0.00179581 0.00494672 0.00145977 0.00444943 -0.00104915 0.00145977 -0.00105398 0.00131072 0.00145977 0.00444943 0.00131072 0.00424668 0.00494672 0.00798171 0.00444943 0.00757188 0.00798171 0.00958378 0.00757188 0.00931734 0.00444943 0.00757188 0.00424668 0.00738806 0.00757188 0.00931734 0.00738806 0.00920846 0.00426321 -1.7455e-05 0.00506001 0.00057189 -1.7455e-05 -0.00107691 0.00057189 -0.000991047 0.00506001 0.00057189 0.00598317 0.000919903 0.00057189 -0.000991047 0.000919903 -0.000918672 0.000919903 -0.000918672 0.000916816 -0.000815979 0.000916816 -0.000815979 0.000627059 -0.000701174 0.000640717 -0.000691913 0.000917693 -0.000816772 0.000917693 -0.000816772 0.000910181 -0.000933854 0.00597757 0.000910181 0.00504912 0.000551413 0.000910181 -0.000933854 0.000551413 -0.00101561 0.00504912 0.000551413 0.00424935 -4.13741e-05 0.000551413 -0.00101561 -4.13741e-05 -0.00110832 -0.00282447 0.00207308 -0.00276383 0.000856952 0.00207308 0.0068976 0.000856952 0.00602868 -0.00276383 0.000856952 -0.00270318 -0.00044637 0.000856952 0.00602868 -0.00044637 0.00549022 0.0068976 0.00818225 0.00602868 0.00826373 0.00818225 0.00997695 0.00826373 0.0110754 0.00602868 0.00826373 0.00549022 0.0079659 0.00826373 0.0110754 0.0079659 0.0127204 -0.00270318 -0.00044637 -0.00265997 -0.000689826 -0.00044637 0.00549022 -0.000689826 0.00479888 -0.00265997 -0.000689826 -0.00261675 -0.000764433 -0.000689826 0.00479888 -0.000764433 0.00349176 0.00549022 0.0079659 0.00479888 0.00833461 0.0079659 0.0127204 0.00833461 0.0127447 0.00479888 0.00833461 0.00349176 0.00893839 0.00833461 0.0127447 0.00893839 0.0120351 -0.00261675 -0.000764433 -0.00259775 -0.000750562 -0.000764433 0.00349176 -0.000750562 0.00317174 -0.00259775 -0.000750562 -0.00257876 -0.000711252 -0.000750562 0.00317174 -0.000711252 0.00325045 0.00349176 0.00893839 0.00317174 0.00897431 0.00893839 0.0120351 0.00897431 0.0117159 0.00317174 0.00897431 0.00325045 0.00920506 0.00897431 0.0117159 0.00920506 0.0112015 0.00623352 0.00427593 0.00718595 0.00419021 0.00427593 0.00231835 0.00419021 0.00430054 0.00718595 0.00419021 0.00813838 0.00465205 0.00419021 0.00430054 0.00465205 0.00528293 0.00997445 0.0104543 0.00940034 0.00889779 0.00939974 0.00889783 0.00997695 0.0104531 0.00732642 0.00359975 0.00736919 0.00358479 0.00359975 -0.00027135 0.00358479 -0.000283459 0.00358479 -0.000283459 0.00352994 -0.000315525 0.00736819 0.00357981 0.00732642 0.00359975 0.00352043 -0.000331724 0.00357981 -0.000291866 0.00357981 -0.000291866 0.00359975 -0.00027135 0.00470251 0.00165335 0.00509862 0.00141752 0.00528293 0.00551658 0.006591 0.00698864 0.00659798 0.00698747 0.00529325 0.00550984 0.00464989 0.00169215 0.00441607 0.00168591 0.00441607 0.00168591 0.00412896 0.00160085 -0.00299074 0.00257382 -0.00310603 0.00398231 0.00257382 0.00813838 0.00398231 0.00672677 -0.00310603 0.00398231 -0.00322132 0.00276819 0.00398231 0.00672677 0.00276819 0.00696241 0.00813838 0.00465205 0.00672677 0.00614601 0.00465205 0.00528293 0.00614601 0.006591 0.00672677 0.00614601 0.00696241 0.00699386 0.00614601 0.006591 0.00699386 0.00838337 -0.0032226 0.00276834 -0.00310818 0.00398272 0.00276834 0.00696401 0.00398272 0.00672977 -0.00310818 0.00398272 -0.00299377 0.00257448 0.00398272 0.00672977 0.00257448 0.00814274 0.00696401 0.00699669 0.00672977 0.00615131 0.00699669 0.00838704 0.00615131 0.00659798 0.00672977 0.00615131 0.00814274 0.00465992 0.00615131 0.00659798 0.00465992 0.00529325 0.00814274 0.00465992 0.00719146 0.00420077 0.00465992 0.00529325 0.00420077 0.00431416 0.00719146 0.00420077 0.00624018 0.00428696 0.00420077 0.00431416 0.00428696 0.00233373 0.00288194 0.000504292 0.00282561 0.000517942 0.000504292 -0.00187336 0.000517942 -0.00184011 0.00282561 0.000517942 0.00276927 0.000505714 0.000517942 -0.00184011 0.000505714 -0.00180686 0.00276927 0.000505714 0.00277926 0.000485938 0.000505714 -0.00180686 0.000485938 -0.00183285 0.00277926 0.000485938 0.00278925 0.000465206 0.000485938 -0.00183285 0.000465206 -0.00185884 0.00249549 0.00267999 0.00238055 0.00264466 0.00267999 0.0028645 0.00264466 0.00287322 0.00238055 0.00264466 0.00226561 0.00257377 0.00264466 0.00287322 0.00257377 0.00288194 0.00974144 0.00944251 0.0099656 0.00974584 0.00944251 0.00914357 0.00974584 0.00911666 0.0099656 0.00974584 0.0101898 0.00982086 0.00974584 0.00911666 0.00982086 0.00908976 0.0101898 0.00982086 0.0102587 0.0097653 0.00982086 0.00908976 0.0097653 0.00885515 0.0102587 0.0097653 0.0103277 0.00947411 0.0097653 0.00885515 0.00947411 0.00862054 -0.000620081 0.00137785 -0.00056993 0.00113515 0.00137785 0.00337578 0.00113515 0.00304214 -0.00056993 0.00113515 -0.000580369 0.000912242 0.00113515 0.00304214 0.000912242 0.0027085 -0.00058