# vtk DataFile Version 3.0
#This file was generated by the deal.II library on 2023/2/24 at 14:50:30
ASCII
DATASET UNSTRUCTURED_GRID

FIELD FieldData 2
CYCLE 1 1 int
82
TIME 1 1 double
0.164
POINTS 61600 double
-1.41421 1.22465e-16 1.41421
-1.84776 1.22465e-16 0.765367
-1.46804 0.382683 1.46804
-1.91809 0.382683 0.794497
-1.46804 0.382683 1.46804
-1.91809 0.382683 0.794497
-1.62132 0.707107 1.62132
-2.11836 0.707107 0.877452
-1.62132 0.707107 1.62132
-2.11836 0.707107 0.877452
-1.85072 0.92388 1.85072
-2.41809 0.92388 1.0016
-1.85072 0.92388 1.85072
-2.41809 0.92388 1.0016
-2.12132 1 2.12132
-2.77164 1 1.14805
-2.12132 -1 2.12132
-2.77164 -1 1.14805
-1.85072 -0.92388 1.85072
-2.41809 -0.92388 1.0016
-1.85072 -0.92388 1.85072
-2.41809 -0.92388 1.0016
-1.62132 -0.707107 1.62132
-2.11836 -0.707107 0.877452
-1.62132 -0.707107 1.62132
-2.11836 -0.707107 0.877452
-1.46804 -0.382683 1.46804
-1.91809 -0.382683 0.794497
-1.46804 -0.382683 1.46804
-1.91809 -0.382683 0.794497
-1.41421 1.22465e-16 1.41421
-1.84776 1.22465e-16 0.765367
-1.53073 0 3.69552
-2.82843 0 2.82843
-1.5016 -0.382683 3.62519
-2.7746 -0.382683 2.7746
-1.5016 -0.382683 3.62519
-2.7746 -0.382683 2.7746
-1.41865 -0.707107 3.42492
-2.62132 -0.707107 2.62132
-2.82843 0 2.82843
-3.69552 0 1.53073
-2.7746 -0.382683 2.7746
-3.62519 -0.382683 1.5016
-2.7746 -0.382683 2.7746
-3.62519 -0.382683 1.5016
-2.62132 -0.707107 2.62132
-3.42492 -0.707107 1.41865
-1.41865 -0.707107 3.42492
-2.62132 -0.707107 2.62132
-1.2945 -0.92388 3.12519
-2.39192 -0.92388 2.39192
-1.2945 -0.92388 3.12519
-2.39192 -0.92388 2.39192
-1.14805 -1 2.77164
-2.12132 -1 2.12132
-2.62132 -0.707107 2.62132
-3.42492 -0.707107 1.41865
-2.39192 -0.92388 2.39192
-3.12519 -0.92388 1.2945
-2.39192 -0.92388 2.39192
-3.12519 -0.92388 1.2945
-2.12132 -1 2.12132
-2.77164 -1 1.14805
-1.14805 1 2.77164
-2.12132 1 2.12132
-1.2945 0.92388 3.12519
-2.39192 0.92388 2.39192
-1.2945 0.92388 3.12519
-2.39192 0.92388 2.39192
-1.41865 0.707107 3.42492
-2.62132 0.707107 2.62132
-2.12132 1 2.12132
-2.77164 1 1.14805
-2.39192 0.92388 2.39192
-3.12519 0.92388 1.2945
-2.39192 0.92388 2.39192
-3.12519 0.92388 1.2945
-2.62132 0.707107 2.62132
-3.42492 0.707107 1.41865
-1.41865 0.707107 3.42492
-2.62132 0.707107 2.62132
-1.5016 0.382683 3.62519
-2.7746 0.382683 2.7746
-1.5016 0.382683 3.62519
-2.7746 0.382683 2.7746
-1.53073 0 3.69552
-2.82843 0 2.82843
-2.62132 0.707107 2.62132
-3.42492 0.707107 1.41865
-2.7746 0.382683 2.7746
-3.62519 0.382683 1.5016
-2.7746 0.382683 2.7746
-3.62519 0.382683 1.5016
-2.82843 0 2.82843
-3.69552 0 1.53073
0.765367 1.22465e-16 -1.84776
1.41421 1.22465e-16 -1.41421
0.794497 0.382683 -1.91809
1.46804 0.382683 -1.46804
0.794497 0.382683 -1.91809
1.46804 0.382683 -1.46804
0.877452 0.707107 -2.11836
1.62132 0.707107 -1.62132
0.877452 0.707107 -2.11836
1.62132 0.707107 -1.62132
1.0016 0.92388 -2.41809
1.85072 0.92388 -1.85072
1.0016 0.92388 -2.41809
1.85072 0.92388 -1.85072
1.14805 1 -2.77164
2.12132 1 -2.12132
1.14805 -1 -2.77164
2.12132 -1 -2.12132
1.0016 -0.92388 -2.41809
1.85072 -0.92388 -1.85072
1.0016 -0.92388 -2.41809
1.85072 -0.92388 -1.85072
0.877452 -0.707107 -2.11836
1.62132 -0.707107 -1.62132
0.877452 -0.707107 -2.11836
1.62132 -0.707107 -1.62132
0.794497 -0.382683 -1.91809
1.46804 -0.382683 -1.46804
0.794497 -0.382683 -1.91809
1.46804 -0.382683 -1.46804
0.765367 1.22465e-16 -1.84776
1.41421 1.22465e-16 -1.41421
1.53073 0 -3.69552
2.82843 0 -2.82843
1.5016 -0.382683 -3.62519
2.7746 -0.382683 -2.7746
1.5016 -0.382683 -3.62519
2.7746 -0.382683 -2.7746
1.41865 -0.707107 -3.42492
2.62132 -0.707107 -2.62132
2.82843 0 -2.82843
3.69552 0 -1.53073
2.7746 -0.382683 -2.7746
3.62519 -0.382683 -1.5016
2.7746 -0.382683 -2.7746
3.62519 -0.382683 -1.5016
2.62132 -0.707107 -2.62132
3.42492 -0.707107 -1.41865
1.41865 -0.707107 -3.42492
2.62132 -0.707107 -2.62132
1.2945 -0.92388 -3.12519
2.39192 -0.92388 -2.39192
1.2945 -0.92388 -3.12519
2.39192 -0.92388 -2.39192
1.14805 -1 -2.77164
2.12132 -1 -2.12132
2.62132 -0.707107 -2.62132
3.42492 -0.707107 -1.41865
2.39192 -0.92388 -2.39192
3.12519 -0.92388 -1.2945
2.39192 -0.92388 -2.39192
3.12519 -0.92388 -1.2945
2.12132 -1 -2.12132
2.77164 -1 -1.14805
1.14805 1 -2.77164
2.12132 1 -2.12132
1.2945 0.92388 -3.12519
2.39192 0.92388 -2.39192
1.2945 0.92388 -3.12519
2.39192 0.92388 -2.39192
1.41865 0.707107 -3.42492
2.62132 0.707107 -2.62132
2.12132 1 -2.12132
2.77164 1 -1.14805
2.39192 0.92388 -2.39192
3.12519 0.92388 -1.2945
2.39192 0.92388 -2.39192
3.12519 0.92388 -1.2945
2.62132 0.707107 -2.62132
3.42492 0.707107 -1.41865
1.41865 0.707107 -3.42492
2.62132 0.707107 -2.62132
1.5016 0.382683 -3.62519
2.7746 0.382683 -2.7746
1.5016 0.382683 -3.62519
2.7746 0.382683 -2.7746
1.53073 0 -3.69552
2.82843 0 -2.82843
2.62132 0.707107 -2.62132
3.42492 0.707107 -1.41865
2.7746 0.382683 -2.7746
3.62519 0.382683 -1.5016
2.7746 0.382683 -2.7746
3.62519 0.382683 -1.5016
2.82843 0 -2.82843
3.69552 0 -1.53073
-0.765511 -0.382683 3.84848
-1.5016 -0.382683 3.62519
-0.747483 -0.55557 3.75785
-1.46624 -0.55557 3.53982
-0.747483 -0.55557 3.75785
-1.46624 -0.55557 3.53982
-0.723221 -0.707107 3.63588
-1.41865 -0.707107 3.42492
-0.723221 -0.707107 3.63588
-1.41865 -0.707107 3.42492
-0.693657 -0.83147 3.48725
-1.36066 -0.83147 3.28492
-0.693657 -0.83147 3.48725
-1.36066 -0.83147 3.28492
-0.659929 -0.92388 3.31769
-1.2945 -0.92388 3.12519
-0.659929 0.92388 3.31769
-1.2945 0.92388 3.12519
-0.693657 0.83147 3.48725
-1.36066 0.83147 3.28492
-0.693657 0.83147 3.48725
-1.36066 0.83147 3.28492
-0.723221 0.707107 3.63588
-1.41865 0.707107 3.42492
-0.723221 0.707107 3.63588
-1.41865 0.707107 3.42492
-0.747483 0.55557 3.75785
-1.46624 0.55557 3.53982
-0.747483 0.55557 3.75785
-1.46624 0.55557 3.53982
-0.765511 0.382683 3.84848
-1.5016 0.382683 3.62519
3.62519 -0.382683 -1.5016
3.84848 -0.382683 -0.765511
3.53982 -0.55557 -1.46624
3.75785 -0.55557 -0.747483
3.53982 -0.55557 -1.46624
3.75785 -0.55557 -0.747483
3.42492 -0.707107 -1.41865
3.63588 -0.707107 -0.723221
3.42492 -0.707107 -1.41865
3.63588 -0.707107 -0.723221
3.28492 -0.83147 -1.36066
3.48725 -0.83147 -0.693657
3.28492 -0.83147 -1.36066
3.48725 -0.83147 -0.693657
3.12519 -0.92388 -1.2945
3.31769 -0.92388 -0.659929
3.12519 0.92388 -1.2945
3.31769 0.92388 -0.659929
3.28492 0.83147 -1.36066
3.48725 0.83147 -0.693657
3.28492 0.83147 -1.36066
3.48725 0.83147 -0.693657
3.42492 0.707107 -1.41865
3.63588 0.707107 -0.723221
3.42492 0.707107 -1.41865
3.63588 0.707107 -0.723221
3.53982 0.55557 -1.46624
3.75785 0.55557 -0.747483
3.53982 0.55557 -1.46624
3.75785 0.55557 -0.747483
3.62519 0.382683 -1.5016
3.84848 0.382683 -0.765511
-0.547211 0.980785 2.75101
-1.07339 0.980785 2.5914
-0.585271 1 2.94236
-1.14805 1 2.77164
-0.585271 -1 2.94236
-1.14805 -1 2.77164
-0.547211 -0.980785 2.75101
-1.07339 -0.980785 2.5914
-0.780361 0 3.92314
-1.53073 0 3.69552
-0.776613 -0.19509 3.9043
-1.52338 -0.19509 3.67777
-0.776613 -0.19509 3.9043
-1.52338 -0.19509 3.67777
-0.765511 -0.382683 3.84848
-1.5016 -0.382683 3.62519
-0.765511 0.382683 3.84848
-1.5016 0.382683 3.62519
-0.776613 0.19509 3.9043
-1.52338 0.19509 3.67777
-0.776613 0.19509 3.9043
-1.52338 0.19509 3.67777
-0.780361 0 3.92314
-1.53073 0 3.69552
-0.659929 -0.92388 3.31769
-1.2945 -0.92388 3.12519
-0.623331 -0.980785 3.1337
-1.22271 -0.980785 2.95188
-0.623331 -0.980785 3.1337
-1.22271 -0.980785 2.95188
-0.585271 -1 2.94236
-1.14805 -1 2.77164
3.69552 0 -1.53073
3.92314 0 -0.780361
3.67777 -0.19509 -1.52338
3.9043 -0.19509 -0.776613
3.67777 -0.19509 -1.52338
3.9043 -0.19509 -0.776613
3.62519 -0.382683 -1.5016
3.84848 -0.382683 -0.765511
3.62519 0.382683 -1.5016
3.84848 0.382683 -0.765511
3.67777 0.19509 -1.52338
3.9043 0.19509 -0.776613
3.67777 0.19509 -1.52338
3.9043 0.19509 -0.776613
3.69552 0 -1.53073
3.92314 0 -0.780361
-0.585271 1 2.94236
-1.14805 1 2.77164
-0.623331 0.980785 3.1337
-1.22271 0.980785 2.95188
-0.623331 0.980785 3.1337
-1.22271 0.980785 2.95188
-0.659929 0.92388 3.31769
-1.2945 0.92388 3.12519
2.5914 0.980785 -1.07339
2.75101 0.980785 -0.547211
2.77164 1 -1.14805
2.94236 1 -0.585271
2.77164 -1 -1.14805
2.94236 -1 -0.585271
2.5914 -0.980785 -1.07339
2.75101 -0.980785 -0.547211
3.12519 -0.92388 -1.2945
3.31769 -0.92388 -0.659929
2.95188 -0.980785 -1.22271
3.1337 -0.980785 -0.623331
2.95188 -0.980785 -1.22271
3.1337 -0.980785 -0.623331
2.77164 -1 -1.14805
2.94236 -1 -0.585271
2.77164 1 -1.14805
2.94236 1 -0.585271
2.95188 0.980785 -1.22271
3.1337 0.980785 -0.623331
2.95188 0.980785 -1.22271
3.1337 0.980785 -0.623331
3.12519 0.92388 -1.2945
3.31769 0.92388 -0.659929
-1.84776 1.22465e-16 0.765367
-1.96157 1.22465e-16 0.390181
-1.86551 0.19509 0.77272
-1.98042 0.19509 0.393929
-1.86551 0.19509 0.77272
-1.98042 0.19509 0.393929
-1.91809 0.382683 0.794497
-2.03623 0.382683 0.405031
-1.98042 0.19509 0.393929
-2.01921 0.19509 2.47282e-16
-2.03623 0.382683 0.405031
-2.07612 0.382683 2.54251e-16
-1.91809 0.382683 0.794497
-2.03623 0.382683 0.405031
-2.00346 0.55557 0.829861
-2.12686 0.55557 0.423059
-2.03623 0.382683 0.405031
-2.07612 0.382683 2.54251e-16
-2.12686 0.55557 0.423059
-2.16853 0.55557 2.65568e-16
-2.00346 0.55557 0.829861
-2.12686 0.55557 0.423059
-2.11836 0.707107 0.877452
-2.24884 0.707107 0.447321
-2.12686 0.55557 0.423059
-2.16853 0.55557 2.65568e-16
-2.24884 0.707107 0.447321
-2.29289 0.707107 2.80798e-16
-2.11836 0.707107 0.877452
-2.24884 0.707107 0.447321
-2.25836 0.83147 0.935443
-2.39746 0.83147 0.476885
-2.25836 0.83147 0.935443
-2.39746 0.83147 0.476885
-2.41809 0.92388 1.0016
-2.56703 0.92388 0.510613
-2.41809 0.92388 1.0016
-2.56703 0.92388 0.510613
-2.5914 0.980785 1.07339
-2.75101 0.980785 0.547211
-2.5914 0.980785 1.07339
-2.75101 0.980785 0.547211
-2.77164 1 1.14805
-2.94236 1 0.585271
-2.77164 -1 1.14805
-2.94236 -1 0.585271
-2.5914 -0.980785 1.07339
-2.75101 -0.980785 0.547211
-2.5914 -0.980785 1.07339
-2.75101 -0.980785 0.547211
-2.41809 -0.92388 1.0016
-2.56703 -0.92388 0.510613
-2.41809 -0.92388 1.0016
-2.56703 -0.92388 0.510613
-2.25836 -0.83147 0.935443
[...]
POINT_DATA 61600
SCALARS U double 1
LOOKUP_TABLE default
-3.78893e-07 1.50622e-06 5.93829e-07 3.22016e-06 5.93829e-07 3.22016e-06 2.12671e-06 6.23989e-06 2.12671e-06 6.23989e-06 2.10197e-06 7.75641e-06 2.10197e-06 7.75641e-06 2.25607e-06 1.01351e-05 2.25607e-06 1.01354e-05 2.10191e-06 7.7562e-06 2.10191e-06 7.7562e-06 2.12606e-06 6.24286e-06 2.12606e-06 6.24286e-06 5.92455e-07 3.22976e-06 5.92455e-07 3.22976e-06 -3.78893e-07 1.50622e-06 -3.72333e-06 -1.84912e-06 -3.79002e-06 -1.56186e-06 -3.79002e-06 -1.56186e-06 -6.29703e-06 -4.89383e-07 -1.84912e-06 1.89426e-05 -1.56186e-06 1.79548e-05 -1.56186e-06 1.79548e-05 -4.89383e-07 1.63284e-05 -6.29703e-06 -4.89383e-07 -8.68865e-06 1.00151e-06 -8.68865e-06 1.00151e-06 -1.10446e-05 2.25607e-06 -4.89383e-07 1.63284e-05 1.00151e-06 1.2967e-05 1.00151e-06 1.2967e-05 2.25607e-06 1.01354e-05 -1.10446e-05 2.25607e-06 -8.68874e-06 1.00146e-06 -8.68874e-06 1.00146e-06 -6.29707e-06 -4.89498e-07 2.25607e-06 1.01351e-05 1.00146e-06 1.2967e-05 1.00146e-06 1.2967e-05 -4.89498e-07 1.63285e-05 -6.29707e-06 -4.89498e-07 -3.79004e-06 -1.56202e-06 -3.79004e-06 -1.56202e-06 -3.72333e-06 -1.84912e-06 -4.89498e-07 1.63285e-05 -1.56202e-06 1.79548e-05 -1.56202e-06 1.79548e-05 -1.84912e-06 1.89426e-05 1.50102e-06 -3.89155e-07 3.20799e-06 6.4051e-07 3.20799e-06 6.4051e-07 6.23175e-06 2.16225e-06 6.23175e-06 2.16225e-06 7.75624e-06 2.10278e-06 7.75624e-06 2.10278e-06 1.01351e-05 2.25568e-06 1.01176e-05 2.3121e-06 7.74132e-06 2.16603e-06 7.74132e-06 2.16603e-06 6.22321e-06 2.21324e-06 6.22321e-06 2.21324e-06 3.20356e-06 6.75884e-07 3.20356e-06 6.75884e-07 1.50102e-06 -3.89155e-07 1.89426e-05 -1.84931e-06 1.79546e-05 -1.56164e-06 1.79546e-05 -1.56164e-06 1.63272e-05 -4.8614e-07 -1.84931e-06 -3.72351e-06 -1.56164e-06 -3.79134e-06 -1.56164e-06 -3.79134e-06 -4.8614e-07 -6.29134e-06 1.63272e-05 -4.8614e-07 1.29604e-05 1.02039e-06 1.29604e-05 1.02039e-06 1.01176e-05 2.3121e-06 -4.8614e-07 -6.29134e-06 1.02039e-06 -8.6717e-06 1.02039e-06 -8.6717e-06 2.3121e-06 -1.10729e-05 1.01351e-05 2.25568e-06 1.29668e-05 1.00155e-06 1.29668e-05 1.00155e-06 1.63282e-05 -4.89474e-07 2.25568e-06 -1.10448e-05 1.00155e-06 -8.6883e-06 1.00155e-06 -8.6883e-06 -4.89474e-07 -6.29703e-06 1.63282e-05 -4.89474e-07 1.79547e-05 -1.56198e-06 1.79547e-05 -1.56198e-06 1.89426e-05 -1.84931e-06 -4.89474e-07 -6.29703e-06 -1.56198e-06 -3.79005e-06 -1.56198e-06 -3.79005e-06 -1.84931e-06 -3.72351e-06 1.93394e-05 -3.79002e-06 2.77734e-05 -5.04353e-06 2.77734e-05 -5.04353e-06 3.81505e-05 -6.29703e-06 3.81505e-05 -6.29703e-06 4.80988e-05 -7.49284e-06 4.80988e-05 -7.49284e-06 5.45922e-05 -8.68865e-06 5.45923e-05 -8.68874e-06 4.80988e-05 -7.49291e-06 4.80988e-05 -7.49291e-06 3.81504e-05 -6.29707e-06 3.81504e-05 -6.29707e-06 2.77734e-05 -5.04356e-06 2.77734e-05 -5.04356e-06 1.93393e-05 -3.79004e-06 -3.79134e-06 1.93273e-05 -5.04134e-06 2.77394e-05 -5.04134e-06 2.77394e-05 -6.29134e-06 3.80755e-05 -6.29134e-06 3.80755e-05 -7.48152e-06 4.79467e-05 -7.48152e-06 4.79467e-05 -8.6717e-06 5.43056e-05 -8.6883e-06 5.45921e-05 -7.49266e-06 4.80986e-05 -7.49266e-06 4.80986e-05 -6.29703e-06 3.81504e-05 -6.29703e-06 3.81504e-05 -5.04354e-06 2.77733e-05 -5.04354e-06 2.77733e-05 -3.79005e-06 1.93393e-05 9.22145e-05 -9.79087e-06 7.92542e-05 -1.10446e-05 7.92541e-05 -1.10446e-05 9.22144e-05 -9.79089e-06 1.70932e-05 -3.72333e-06 1.87631e-05 -3.75667e-06 1.87631e-05 -3.75667e-06 1.93394e-05 -3.79002e-06 1.93393e-05 -3.79004e-06 1.87631e-05 -3.75669e-06 1.87631e-05 -3.75669e-06 1.70932e-05 -3.72333e-06 5.45922e-05 -8.68865e-06 6.04688e-05 -9.86662e-06 6.04688e-05 -9.86662e-06 7.92541e-05 -1.10446e-05 -3.72351e-06 1.70921e-05 -3.75742e-06 1.87593e-05 -3.75742e-06 1.87593e-05 -3.79134e-06 1.93273e-05 -3.79005e-06 1.93393e-05 -3.75678e-06 1.87629e-05 -3.75678e-06 1.87629e-05 -3.72351e-06 1.70921e-05 7.92542e-05 -1.10446e-05 6.04689e-05 -9.86668e-06 6.04689e-05 -9.86668e-06 5.45923e-05 -8.68874e-06 -9.79122e-06 9.2213e-05 -1.10448e-05 7.92551e-05 -1.10729e-05 7.86553e-05 -9.83291e-06 9.13037e-05 -8.6717e-06 5.43056e-05 -9.8723e-06 6.00782e-05 -9.8723e-06 6.00782e-05 -1.10729e-05 7.86553e-05 -1.10448e-05 7.92551e-05 -9.86653e-06 6.04688e-05 -9.86653e-06 6.04688e-05 -8.6883e-06 5.45921e-05 1.50622e-06 6.30988e-06 2.36319e-06 -2.41882e-06 2.36319e-06 -2.41882e-06 3.22016e-06 -6.77878e-06 -2.41882e-06 -6.13119e-06 -6.77878e-06 -5.5779e-06 3.22016e-06 -6.77878e-06 4.73003e-06 -1.68927e-05 -6.77878e-06 -5.5779e-06 -1.68927e-05 -9.75582e-06 4.73003e-06 -1.68927e-05 6.23989e-06 -2.70853e-05 -1.68927e-05 -9.75582e-06 -2.70853e-05 -2.8637e-05 6.23989e-06 -2.70853e-05 6.99815e-06 -3.0106e-05 6.99815e-06 -3.0106e-05 7.75641e-06 -3.36582e-05 7.75641e-06 -3.36582e-05 8.94577e-06 -3.17034e-05 8.94577e-06 -3.17034e-05 1.01351e-05 -3.19471e-05 1.01354e-05 -3.19469e-05 8.94578e-06 -3.17032e-05 8.94578e-06 -3.17032e-05 7.7562e-06 -3.3657e-05 7.7562e-06 -3.3657e-05 6.99953e-06 -3.01042e-05 6.99953e-06 -3.01042e-05 6.24286e-06 -2.7085e-05 6.24286e-06 -2.7085e-05 4.73631e-06 -1.68987e-05 -2.7085e-05 -2.86396e-05 -1.68987e-05 -9.75684e-06 4.73631e-06 -1.68987e-05 3.22976e-06 -6.79229e-06 -1.68987e-05 -9.75684e-06 -6.79229e-06 -5.55731e-06 3.22976e-06 -6.79229e-06 2.36799e-06 -2.43025e-06 -6.79229e-06 -5.55731e-06 -2.43025e-06 -6.10142e-06 2.36799e-06 -2.43025e-06 1.50622e-06 6.30988e-06 1.89426e-05 -4.44825e-05 1.84487e-05 -4.20925e-05 1.84487e-05 -4.20925e-05 1.79548e-05 -3.90501e-05 1.79548e-05 -3.90501e-05 1.71416e-05 -4.05386e-05 1.71416e-05 -4.05386e-05 1.63284e-05 -3.97013e-05 1.63284e-05 -3.97013e-05 1.46477e-05 -3.24517e-05 1.46477e-05 -3.24517e-05 1.2967e-05 -3.36659e-05 -3.24517e-05 -6.40205e-05 -3.36659e-05 -6.13047e-05 1.2967e-05 -3.36659e-05 1.15512e-05 -3.23756e-05 -3.36659e-05 -6.13047e-05 -3.23756e-05 -6.98173e-05 1.15512e-05 -3.23756e-05 1.01354e-05 -3.19469e-05 -3.23756e-05 -6.98173e-05 -3.19469e-05 -8.48615e-05 1.01351e-05 -3.19471e-05 1.15511e-05 -3.23757e-05 -3.19471e-05 -8.48615e-05 -3.23757e-05 -6.98174e-05 1.15511e-05 -3.23757e-05 1.2967e-05 -3.36661e-05 -3.23757e-05 -6.98174e-05 -3.36661e-05 -6.13047e-05 1.2967e-05 -3.36661e-05 1.46477e-05 -3.24519e-05 -3.36661e-05 -6.13047e-05 -3.24519e-05 -6.40205e-05 1.46477e-05 -3.24519e-05 1.63285e-05 -3.97014e-05 1.63285e-05 -3.97014e-05 1.71416e-05 -4.05386e-05 1.71416e-05 -4.05386e-05 1.79548e-05 -3.905e-05 1.79548e-05 -3.905e-05 1.84487e-05 -4.20925e-05 1.84487e-05 -4.20925e-05 1.89426e-05 -4.44825e-05 6.37609e-06 1.50102e-06 -2.36293e-06 2.35451e-06 -6.10196e-06 -2.36293e-06 -5.54932e-06 -6.75442e-06 -2.36293e-06 2.35451e-06 -6.75442e-06 3.20799e-06 -5.54932e-06 -6.75442e-06 -9.74416e-06 -1.68882e-05 -6.75442e-06 3.20799e-06 -1.68882e-05 4.71987e-06 -9.74416e-06 -1.68882e-05 -2.86352e-05 -2.70858e-05 -1.68882e-05 4.71987e-06 -2.70858e-05 6.23175e-06 -2.70858e-05 6.23175e-06 -3.01066e-05 6.994e-06 -3.01066e-05 6.994e-06 -3.36587e-05 7.75624e-06 -3.36587e-05 7.75624e-06 -3.17034e-05 8.94568e-06 -3.17034e-05 8.94568e-06 -3.1947e-05 1.01351e-05 -3.19503e-05 1.01176e-05 -3.1709e-05 8.92944e-06 -3.1709e-05 8.92944e-06 -3.36649e-05 7.74132e-06 -3.36649e-05 7.74132e-06 -3.01124e-05 6.98226e-06 -3.01124e-05 6.98226e-06 -2.70899e-05 6.22321e-06 -2.86344e-05 -2.70899e-05 -9.74341e-06 -1.68913e-05 -2.70899e-05 6.22321e-06 -1.68913e-05 4.71339e-06 -9.74341e-06 -1.68913e-05 -5.54887e-06 -6.75672e-06 -1.68913e-05 4.71339e-06 -6.75672e-06 3.20356e-06 -5.54887e-06 -6.75672e-06 -6.10171e-06 -2.36422e-06 -6.75672e-06 3.20356e-06 -2.36422e-06 2.35229e-06 -2.36422e-06 2.35229e-06 6.37609e-06 1.50102e-06 -4.44826e-05 1.89426e-05 -4.20927e-05 1.84486e-05 -4.20927e-05 1.84486e-05 -3.90502e-05 1.79546e-05 -3.90502e-05 1.79546e-05 -4.05389e-05 1.71409e-05 -4.05389e-05 1.71409e-05 -3.97022e-05 1.63272e-05 -3.97022e-05 1.63272e-05 -3.24531e-05 1.46438e-05 -6.402e-05 -3.24531e-05 -6.1304e-05 -3.36682e-05 -3.24531e-05 1.46438e-05 -3.36682e-05 1.29604e-05 -6.1304e-05 -3.36682e-05 -6.98165e-05 -3.23783e-05 -3.36682e-05 1.29604e-05 -3.23783e-05 1.1539e-05 -6.98165e-05 -3.23783e-05 -8.48608e-05 -3.19503e-05 -3.23783e-05 1.1539e-05 -3.19503e-05 1.01176e-05 -8.48615e-05 -3.1947e-05 -6.98172e-05 -3.23756e-05 -3.1947e-05 1.01351e-05 -3.23756e-05 1.1551e-05 -6.98172e-05 -3.23756e-05 -6.13046e-05 -3.3666e-05 -3.23756e-05 1.1551e-05 -3.3666e-05 1.29668e-05 -6.13046e-05 -3.3666e-05 -6.40204e-05 -3.24517e-05 -3.3666e-05 1.29668e-05 -3.24517e-05 1.46475e-05 -3.24517e-05 1.46475e-05 -3.97013e-05 1.63282e-05 -3.97013e-05 1.63282e-05 -4.05387e-05 1.71415e-05 -4.05387e-05 1.71415e-05 -3.90501e-05 1.79547e-05 -3.90501e-05 1.79547e-05 -4.20927e-05 1.84486e-05 -4.20927e-05 1.84486e-05 -4.44826e-05 1.89426e-05 5.36945e-06 -4.22261e-06 4.46588e-06 -4.45759e-06 -4.22261e-06 -3.78893e-07 -4.45759e-06 1.07468e-07 4.46588e-06 -4.45759e-06 2.61546e-06 -4.684e-06 -4.45759e-06 1.07468e-07 -4.684e-06 5.93829e-07 2.61546e-06 -4.684e-06 9.43291e-08 -4.93861e-06 -4.684e-06 5.93829e-07 -4.93861e-06 1.36027e-06 9.43291e-08 -4.93861e-06 -2.13915e-06 -5.04734e-06 -4.93861e-06 1.36027e-06 -5.04734e-06 2.12671e-06 -2.13915e-06 -5.04734e-06 -2.88579e-06 -4.34865e-06 -5.04734e-06 2.12671e-06 -4.34865e-06 2.11434e-06 -2.88579e-06 -4.34865e-06 -2.81907e-06 -3.99321e-06 -4.34865e-06 2.11434e-06 -3.99321e-06 2.10197e-06 -2.81907e-06 -3.99321e-06 -9.79087e-06 -3.3926e-06 -3.99321e-06 2.10197e-06 -3.3926e-06 2.17902e-06 -9.79087e-06 -3.3926e-06 -1.10446e-05 -4.39428e-06 -3.3926e-06 2.17902e-06 -4.39428e-06 2.25607e-06 -1.10446e-05 -4.39426e-06 -9.79089e-06 -3.39264e-06 -4.39426e-06 2.25607e-06 -3.39264e-06 2.17899e-06 -9.79089e-06 -3.39264e-06 -2.81911e-06 -3.99328e-06 -3.39264e-06 2.17899e-06 -3.99328e-06 2.10191e-06 -2.81911e-06 -3.99328e-06 -2.88584e-06 -4.34883e-06 -3.99328e-06 2.10191e-06 -4.34883e-06 2.11398e-06 -2.88584e-06 -4.34883e-06 -2.13917e-06 -5.04771e-06 -4.34883e-06 2.11398e-06 -5.04771e-06 2.12606e-06 -2.13917e-06 -5.04771e-06 9.43043e-08 -4.93938e-06 -5.04771e-06 2.12606e-06 -4.93938e-06 1.35926e-06 9.43043e-08 -4.93938e-06 2.61541e-06 -4.68497e-06 -4.93938e-06 1.35926e-06 -4.68497e-06 5.92455e-07 2.61541e-06 -4.68497e-06 4.46586e-06 -4.45819e-06 -4.68497e-06 5.92455e-07 -4.45819e-06 1.06781e-07 4.46586e-06 -4.45819e-06 5.36945e-06 -4.22261e-06 -4.45819e-06 1.06781e-07 -4.22261e-06 -3.78893e-07 -3.89155e-07 -4.2192e-06 1.25678e-07 -4.48612e-06 -4.2192e-06 5.5046e-06 -4.48612e-06 4.46838e-06 1.25678e-07 -4.48612e-06 6.4051e-07 -4.74452e-06 -4.48612e-06 4.46838e-06 -4.74452e-06 2.42366e-06 6.4051e-07 -4.74452e-06 1.40138e-06 -4.99191e-06 -4.74452e-06 2.42366e-06 -4.99191e-06 -1.26285e-07 1.40138e-06 -4.99191e-06 2.16225e-06 -5.09192e-06 -4.99191e-06 -1.26285e-07 -5.09192e-06 -2.30423e-06 2.16225e-06 -5.09192e-06 2.13251e-06 -4.37413e-06 -5.09192e-06 -2.30423e-06 -4.37413e-06 -2.96574e-06 2.13251e-06 -4.37413e-06 2.10278e-06 -3.99794e-06 -4.37413e-06 -2.96574e-06 -3.99794e-06 -2.83234e-06 2.10278e-06 -3.99794e-06 2.17923e-06 -3.3933e-06 -3.99794e-06 -2.83234e-06 -3.3933e-06 -9.79122e-06 2.17923e-06 -3.3933e-06 2.25568e-06 -4.39454e-06 -3.3933e-06 -9.79122e-06 -4.39454e-06 -1.10448e-05 2.3121e-06 -4.3804e-06 2.23907e-06 -3.3649e-06 -4.3804e-06 -1.10729e-05 -3.3649e-06 -9.83291e-06 2.23907e-06 -3.3649e-06 2.16603e-06 -3.96757e-06 -3.3649e-06 -9.83291e-06 -3.96757e-06 -2.90407e-06 2.16603e-06 -3.96757e-06 2.18964e-06 -4.3403e-06 -3.96757e-06 -2.90407e-06 -4.3403e-06 -3.06095e-06 2.18964e-06 -4.3403e-06 2.21324e-06 -5.06312e-06 -4.3403e-06 -3.06095e-06 -5.06312e-06 -2.4062e-06 2.21324e-06 -5.06312e-06 1.44456e-06 -4.98434e-06 -5.06312e-06 -2.4062e-06 -4.98434e-06 -2.32212e-07 1.44456e-06 -4.98434e-06 6.75884e-07 -4.75737e-06 -4.98434e-06 -2.32212e-07 -4.75737e-06 2.32584e-06 6.75884e-07 -4.75737e-06 1.43365e-07 -4.49581e-06 -4.75737e-06 2.32584e-06 -4.49581e-06 4.41694e-06 1.43365e-07 -4.49581e-06 -3.89155e-07 -4.2192e-06 -4.49581e-06 4.41694e-06 -4.2192e-06 5.5046e-06 0.000270281 1.87631e-05 0.000289426 1.90512e-05 0.000289426 1.90512e-05 0.000297937 1.93394e-05 0.000297937 1.93393e-05 0.000289426 1.90512e-05 0.000289426 1.90512e-05 0.000270281 1.87631e-05 0.0183735 0.0246365 0.0191932 0.0255957 0.0191932 0.0255957 0.0200484 0.0265675 0.0246365 0.0183736 0.0255957 0.0191932 0.0255957 0.0191932 0.0265675 0.0200484 0.0265673 0.0200483 0.0255954 0.019193 0.0255954 0.019193 0.0246361 0.0183734 1.87593e-05 0.000270267 1.90433e-05 0.0002894 1.90433e-05 0.0002894 1.93273e-05 0.00029789 1.93393e-05 0.000297938 1.90511e-05 0.000289426 1.90511e-05 0.000289426 1.87629e-05 0.00027028 0.0117458 0.0217255 0.0115569 0.0213246 0.0115569 0.0213246 0.0113292 0.0208602 0.021727 0.011747 0.0213269 0.0115587 0.0213269 0.0115587 0.0208635 0.011332 0.0113292 0.0208602 0.0110727 0.0203133 0.0208635 0.011332 0.0203181 0.0110768 0.0110768 0.0203181 0.011332 0.0208635 0.0203181 0.0110768 0.0208635 0.011332 0.011332 0.0208635 0.0115587 0.0213269 0.0115587 0.0213269 0.011747 0.021727 0.0208635 0.011332 0.0213269 0.0115587 0.0213269 0.0115587 0.021727 0.011747 0.0200276 0.026539 0.0191836 0.0255604 0.0365255 0.0384501 0.0363631 0.038385 0.0384503 0.0365259 0.0383854 0.0363638 0.0138708 0.0208863 0.0145003 0.021808 0.0208863 0.0138708 0.021808 0.0145003 0.0144676 0.0217849 0.0138401 0.020862 0.0363638 0.0383854 0.0365259 0.0384503 0.0383854 0.0363638 0.0384503 0.0365259 0.0218079 0.0145003 0.0208862 0.0138708 0.012487 0.0228735 0.0124659 0.0228436 0.0124659 0.0228436 0.0123948 0.0227462 0.0123948 0.0227462 0.012275 0.0225739 0.0228736 0.0124871 0.0228438 0.012466 0.0228438 0.012466 0.0227464 0.012395 0.0227464 0.012395 0.0225743 0.0122752 0.0185508 0.0270772 0.0179198 0.026259 0.0270881 0.0185639 0.0262727 0.0179374 0.0179374 0.0262727 0.0185639 0.0270881 0.0262727 0.0179374 0.0270881 0.0185639 0.0122752 0.0225743 0.0123949 0.0227464 0.0123949 0.0227464 0.012466 0.0228437 0.012466 0.0228437 0.012487 0.0228735 0.0225743 0.0122752 0.0227464 0.012395 0.0227464 0.012395 0.0228438 0.012466 0.0228438 0.012466 0.0228736 0.0124871 0.0198021 0.0285564 0.0192039 0.0278199 0.0285627 0.019809 0.0278284 0.0192134 0.0192134 0.0278284 0.019809 0.0285627 0.0278284 0.0192134 0.0285627 0.019809 0.0368401 0.0385847 0.0368174 0.0385873 0.0368174 0.0385873 0.0367539 0.0385634 0.0367539 0.0385634 0.0366564 0.0385057 0.0366564 0.0385057 0.0365255 0.0384501 0.0385847 0.0368402 0.0385873 0.0368174 0.0385873 0.0368174 0.0385635 0.0367541 0.0385635 0.0367541 0.0385058 0.0366566 0.0385058 0.0366566 0.0384503 0.0365259 0.0365259 0.0384503 0.0366566 0.0385058 0.0366566 0.0385058 0.036754 0.0385635 0.036754 0.0385635 0.0368174 0.0385873 0.0368174 0.0385873 0.0368401 0.0385847 0.0384503 0.0365259 0.0385058 0.0366566 0.0385058 0.0366566 0.0385635 0.0367541 0.0385635 0.0367541 0.0385873 0.0368174 0.0385873 0.0368174 0.0385847 0.0368402 -3.17034e-05 -7.4519e-05 -3.18252e-05 -7.16507e-05 -7.4519e-05 -7.21175e-05 -7.16507e-05 -6.94063e-05 -3.18252e-05 -7.16507e-05 -3.19471e-05 -5.84043e-05 -7.16507e-05 -6.94063e-05 -5.84043e-05 -8.48615e-05 -3.19469e-05 -5.84042e-05 -3.1825e-05 -7.16506e-05 -5.84042e-05 -8.48615e-05 -7.16506e-05 -6.94062e-05 -3.1825e-05 -7.16506e-05 -3.17032e-05 -7.45186e-05 -7.16506e-05 -6.94062e-05 -7.45186e-05 -7.21172e-05 -3.90501e-05 -4.16463e-05 -3.97943e-05 -3.54721e-05 -4.16463e-05 -2.39607e-05 -3.54721e-05 -2.86305e-05 -3.97943e-05 -3.54721e-05 -4.05386e-05 -3.17618e-05 -3.54721e-05 -2.86305e-05 -3.17618e-05 -3.05283e-05 -4.05386e-05 -3.17618e-05 -4.012e-05 -3.18989e-05 -3.17618e-05 -3.05283e-05 -3.18989e-05 -3.35462e-05 -4.012e-05 -3.18989e-05 -3.97013e-05 -3.39798e-05 -3.18989e-05 -3.35462e-05 -3.39798e-05 -3.73043e-05 0.0388852 0.0389709 0.0388517 0.0389558 0.0388517 0.0389558 0.0388049 0.0389359 0.0388049 0.0389359 0.0387453 0.0389079 0.0387453 0.0389079 0.0386683 0.0388706 0.0389709 0.0388853 0.0389558 0.0388518 0.0389558 0.0388518 0.0389359 0.0388052 0.0389359 0.0388052 0.0389079 0.0387458 0.0389079 0.0387458 0.0388706 0.0386689 0.0367821 0.0381481 0.0363752 0.0379477 0.0381481 0.038558 0.0379477 0.0384112 0.0379477 0.0384112 0.0376816 0.0382535 0.038669 0.0388709 0.0387458 0.0389081 0.0387458 0.0389081 0.0388052 0.038936 0.0388052 0.038936 0.0388518 0.0389559 0.0388518 0.0389559 0.0388853 0.038971 0.0388709 0.038669 0.0389081 0.0387458 0.0389081 0.0387458 0.038936 0.0388052 0.038936 0.0388052 0.0389559 0.0388518 0.0389559 0.0388518 0.038971 0.0388853 0.0389426 0.0389825 0.0389115 0.0389812 0.0389115 0.0389812 0.0388852 0.0389709 0.0389825 0.0389426 0.0389812 0.0389116 0.0389812 0.0389116 0.0389709 0.0388853 0.0386683 0.0388706 0.0385726 0.0388209 0.0385726 0.0388209 0.0384749 0.038748 0.0374535 0.0384749 0.0371438 0.0383089 0.0371438 0.0383089 0.0367821 0.0381481 0.0388706 0.0386689 0.0388209 0.0385736 0.0388209 0.0385736 0.038748 0.0384763 0.0384763 0.0374564 0.0383107 0.0371477 0.0383107 0.0371477 0.0381505 0.0367872 0.0367873 0.0381509 0.0371478 0.0383111 0.0371478 0.0383111 0.0374564 0.0384765 0.0384765 0.0387486 0.0385738 0.0388214 0.0385738 0.0388214 0.038669 0.0388709 0.0381509 0.0367873 0.0383111 0.0371478 0.0383111 0.0371478 0.0384765 0.0374564 0.0387486 0.0384765 0.0388214 0.0385738 0.0388214 0.0385738 0.0388709 0.038669 0.0388853 0.038971 0.0389116 0.0389812 0.0389116 0.0389812 0.0389426 0.0389825 0.0389462 0.0389933 0.0389541 0.0389865 0.0385873 0.0389541 0.0385634 0.0389426 0.0389541 0.0389865 0.0389426 0.0389825 0.038971 0.0388853 0.0389812 0.0389116 0.0389812 0.0389116 0.0389825 0.0389426 0.000297937 1.93394e-05 0.00031293 2.35564e-05 0.00031293 2.35564e-05 0.000326336 2.77734e-05 0.000397552 6.04688e-05 0.000406739 6.98615e-05 0.000406739 6.98615e-05 0.000401116 7.92541e-05 0.000401117 7.92542e-05 0.000406739 6.98615e-05 0.000406739 6.98615e-05 0.000397552 6.04689e-05 0.000326336 2.77734e-05 0.000341107 3.29619e-05 0.000341107 3.29619e-05 0.000352677 3.81505e-05 0.0389933 0.0389462 0.0389865 0.0389541 0.0389865 0.0389541 0.0389825 0.0389426 0.0389541 0.0385873 0.0389426 0.0385635 0.000352677 3.81505e-05 0.00034164 4.31246e-05 0.00131272 0.00034164 0.00133553 0.000362536 0.00034164 4.31246e-05 0.000362536 4.80988e-05 0.00133553 0.000362536 0.00134408 0.000375109 0.000362536 4.80988e-05 0.000375109 5.13455e-05 0.00134408 0.000375109 0.00134166 0.000377671 0.000375109 5.13455e-05 0.000377671 5.45922e-05 6.00782e-05 0.000395755 6.93668e-05 0.000404555 6.93668e-05 0.000404555 7.86553e-05 0.000398601 7.92551e-05 0.000401117 6.9862e-05 0.000406739 6.9862e-05 0.000406739 6.04688e-05 0.000397553 0.00134166 0.000377671 0.00134408 0.000375109 0.000377671 5.45923e-05 0.000375109 5.13455e-05 0.00134408 0.000375109 0.00133553 0.000362536 0.000375109 5.13455e-05 0.000362536 4.80988e-05 0.00133553 0.000362536 0.00131272 0.00034164 0.000362536 4.80988e-05 0.00034164 4.31246e-05 0.00034164 4.31246e-05 0.000352677 3.81504e-05 0.000352677 3.81504e-05 0.000341107 3.29619e-05 0.000341107 3.29619e-05 0.000326336 2.77734e-05 0.000326336 2.77734e-05 0.00031293 2.35563e-05 0.00031293 2.35563e-05 0.000297937 1.93393e-05 1.93273e-05 0.00029789 2.35334e-05 0.00031285 2.35334e-05 0.00031285 2.77394e-05 0.000326202 2.77394e-05 0.000326202 3.29075e-05 0.000340895 3.29075e-05 0.000340895 3.80755e-05 0.000352349 3.80755e-05 0.000352349 4.30111e-05 0.000341163 4.30111e-05 0.000341163 4.79467e-05 0.000361854 0.000341163 0.00131147 0.000361854 0.00133359 4.79467e-05 0.000361854 5.11262e-05 0.00037419 0.000361854 0.00133359 0.00037419 0.00134103 5.11262e-05 0.00037419 5.43056e-05 0.000376517 0.00037419 0.00134103 0.000376517 0.00133693 5.45921e-05 0.000377671 5.13454e-05 0.000375109 0.000377671 0.00134167 0.000375109 0.00134408 5.13454e-05 0.000375109 4.80986e-05 0.000362536 0.000375109 0.00134408 0.000362536 0.00133553 4.80986e-05 0.000362536 4.31245e-05 0.00034164 0.000362536 0.00133553 0.00034164 0.00131272 4.31245e-05 0.00034164 3.81504e-05 0.000352677 3.81504e-05 0.000352677 3.29619e-05 0.000341107 3.29619e-05 0.000341107 2.77733e-05 0.000326336 2.77733e-05 0.000326336 2.35563e-05 0.00031293 2.35563e-05 0.00031293 1.93393e-05 0.000297938 0.038558 0.0381505 0.0384112 0.0379508 0.0381505 0.0367872 0.0379508 0.0363816 0.0384112 0.0379508 0.0