# vtk DataFile Version 3.0
#This file was generated by the deal.II library on 2023/3/1 at 4:17:39
ASCII
DATASET UNSTRUCTURED_GRID

FIELD FieldData 2
CYCLE 1 1 int
196
TIME 1 1 double
0.392
POINTS 9880 double
2.29289 0.707107 0
2.11836 0.707107 0.877452
2.61732 0.92388 0
2.41809 0.92388 1.0016
2.61732 0.92388 0
2.41809 0.92388 1.0016
3 1 0
2.77164 1 1.14805
3 -1 0
2.77164 -1 1.14805
2.61732 -0.92388 0
2.41809 -0.92388 1.0016
2.41809 -0.92388 1.0016
1.85072 -0.92388 1.85072
2.11836 -0.707107 0.877452
1.62132 -0.707107 1.62132
3.42492 -0.707107 1.41865
2.62132 -0.707107 2.62132
3.12519 -0.92388 1.2945
2.39192 -0.92388 2.39192
3.38268 -0.92388 0
3.12519 -0.92388 1.2945
3 -1 0
2.77164 -1 1.14805
3 1 0
2.77164 1 1.14805
3.38268 0.92388 0
3.12519 0.92388 1.2945
3.12519 0.92388 1.2945
2.39192 0.92388 2.39192
3.42492 0.707107 1.41865
2.62132 0.707107 2.62132
1.85072 0.92388 1.85072
1.0016 0.92388 2.41809
2.12132 1 2.12132
1.14805 1 2.77164
1.14805 -1 2.77164
0 -1 3
1.0016 -0.92388 2.41809
1.60264e-16 -0.92388 2.61732
3.92388 -0.382683 0
3.62519 -0.382683 1.5016
3.70711 -0.707107 0
3.42492 -0.707107 1.41865
2.62132 -0.707107 2.62132
1.41865 -0.707107 3.42492
2.39192 -0.92388 2.39192
1.2945 -0.92388 3.12519
2.39192 -0.92388 2.39192
1.2945 -0.92388 3.12519
2.12132 -1 2.12132
1.14805 -1 2.77164
2.12132 1 2.12132
1.14805 1 2.77164
2.39192 0.92388 2.39192
1.2945 0.92388 3.12519
0.794497 0.382683 1.91809
1.27126e-16 0.382683 2.07612
0.877452 0.707107 2.11836
1.40399e-16 0.707107 2.29289
2 0 0
1.84776 1.22465e-16 0.765367
2.07612 0.382683 0
1.91809 0.382683 0.794497
2.07612 0.382683 0
1.91809 0.382683 0.794497
2.29289 0.707107 0
2.11836 0.707107 0.877452
1.91809 0.382683 0.794497
1.46804 0.382683 1.46804
2.11836 0.707107 0.877452
1.62132 0.707107 1.62132
2.62132 0.707107 2.62132
1.41865 0.707107 3.42492
2.7746 0.382683 2.7746
1.5016 0.382683 3.62519
2.7746 0.382683 2.7746
1.5016 0.382683 3.62519
2.82843 0 2.82843
1.53073 0 3.69552
0 0 2
-0.765367 1.22465e-16 1.84776
1.27126e-16 0.382683 2.07612
-0.794497 0.382683 1.91809
1.27126e-16 0.382683 2.07612
-0.794497 0.382683 1.91809
1.40399e-16 0.707107 2.29289
-0.877452 0.707107 2.11836
1.40399e-16 0.707107 2.29289
-0.877452 0.707107 2.11836
1.60264e-16 0.92388 2.61732
-1.0016 0.92388 2.41809
-0.877452 0.707107 2.11836
-1.62132 0.707107 1.62132
-1.0016 0.92388 2.41809
-1.85072 0.92388 1.85072
0 -1 3
-1.14805 -1 2.77164
1.60264e-16 -0.92388 2.61732
-1.0016 -0.92388 2.41809
1.60264e-16 -0.92388 2.61732
-1.0016 -0.92388 2.41809
1.40399e-16 -0.707107 2.29289
-0.877452 -0.707107 2.11836
1.40399e-16 -0.707107 2.29289
-0.877452 -0.707107 2.11836
1.27126e-16 -0.382683 2.07612
-0.794497 -0.382683 1.91809
1.27126e-16 -0.382683 2.07612
-0.794497 -0.382683 1.91809
0 0 2
-0.765367 1.22465e-16 1.84776
-1.84776 1.22465e-16 0.765367
-2 0 0
-1.91809 0.382683 0.794497
-2.07612 0.382683 2.54251e-16
-1.91809 -0.382683 0.794497
-2.07612 -0.382683 2.54251e-16
-1.84776 1.22465e-16 0.765367
-2 0 0
-2.62132 0.707107 2.62132
-3.42492 0.707107 1.41865
-2.7746 0.382683 2.7746
-3.62519 0.382683 1.5016
-2.7746 0.382683 2.7746
-3.62519 0.382683 1.5016
-2.82843 0 2.82843
-3.69552 0 1.53073
2.07612 -0.382683 0
1.91809 -0.382683 0.794497
2 0 0
1.84776 1.22465e-16 0.765367
1.46804 -0.382683 1.46804
0.794497 -0.382683 1.91809
1.41421 1.22465e-16 1.41421
0.765367 1.22465e-16 1.84776
0.794497 -0.382683 1.91809
1.27126e-16 -0.382683 2.07612
0.765367 1.22465e-16 1.84776
0 0 2
-1.62132 0.707107 -1.62132
-1.27386 0.707107 -1.90647
-1.72847 0.83147 -1.72847
-1.35805 0.83147 -2.03247
-1.72847 0.83147 -1.72847
-1.35805 0.83147 -2.03247
-1.85072 0.92388 -1.85072
-1.4541 0.92388 -2.17622
-1.35805 0.83147 -2.03247
-0.935443 0.83147 -2.25836
-1.4541 0.92388 -2.17622
-1.0016 0.92388 -2.41809
2.11836 0.707107 0.877452
1.90647 0.707107 1.27386
2.25836 0.83147 0.935443
2.03247 0.83147 1.35805
1.90647 0.707107 1.27386
1.62132 0.707107 1.62132
2.03247 0.83147 1.35805
1.72847 0.83147 1.72847
2.25836 0.83147 0.935443
2.03247 0.83147 1.35805
2.41809 0.92388 1.0016
2.17622 0.92388 1.4541
2.03247 0.83147 1.35805
1.72847 0.83147 1.72847
2.17622 0.92388 1.4541
1.85072 0.92388 1.85072
2.77164 -1 1.14805
2.49441 -1 1.66671
2.5914 -0.980785 1.07339
2.3322 -0.980785 1.55832
2.49441 -1 1.66671
2.12132 -1 2.12132
2.3322 -0.980785 1.55832
1.98337 -0.980785 1.98337
2.5914 -0.980785 1.07339
2.3322 -0.980785 1.55832
2.41809 -0.92388 1.0016
2.17622 -0.92388 1.4541
2.3322 -0.980785 1.55832
1.98337 -0.980785 1.98337
2.17622 -0.92388 1.4541
1.85072 -0.92388 1.85072
2.41809 0.92388 1.0016
2.17622 0.92388 1.4541
2.5914 0.980785 1.07339
2.3322 0.980785 1.55832
2.17622 0.92388 1.4541
1.85072 0.92388 1.85072
2.3322 0.980785 1.55832
1.98337 0.980785 1.98337
2.5914 0.980785 1.07339
2.3322 0.980785 1.55832
2.77164 1 1.14805
2.49441 1 1.66671
2.3322 0.980785 1.55832
1.98337 0.980785 1.98337
2.49441 1 1.66671
2.12132 1 2.12132
2.61732 -0.92388 0
2.56703 -0.92388 0.510613
2.44443 -0.83147 0
2.39746 -0.83147 0.476885
2.56703 -0.92388 0.510613
2.41809 -0.92388 1.0016
2.39746 -0.83147 0.476885
2.25836 -0.83147 0.935443
2.44443 -0.83147 0
2.39746 -0.83147 0.476885
2.29289 -0.707107 0
2.24884 -0.707107 0.447321
2.39746 -0.83147 0.476885
2.25836 -0.83147 0.935443
2.24884 -0.707107 0.447321
2.11836 -0.707107 0.877452
-1.4541 -0.92388 -2.17622
-1.0016 -0.92388 -2.41809
-1.35805 -0.83147 -2.03247
-0.935443 -0.83147 -2.25836
-1.35805 -0.83147 -2.03247
-0.935443 -0.83147 -2.25836
-1.27386 -0.707107 -1.90647
-0.877452 -0.707107 -2.11836
-0.935443 -0.83147 -2.25836
-0.476885 -0.83147 -2.39746
-0.877452 -0.707107 -2.11836
-0.447321 -0.707107 -2.24884
-1.85072 0.92388 -1.85072
-1.4541 0.92388 -2.17622
-1.98337 0.980785 -1.98337
-1.55832 0.980785 -2.3322
-1.4541 0.92388 -2.17622
-1.0016 0.92388 -2.41809
-1.55832 0.980785 -2.3322
-1.07339 0.980785 -2.5914
-1.98337 0.980785 -1.98337
-1.55832 0.980785 -2.3322
-2.12132 1 -2.12132
-1.66671 1 -2.49441
-3.26259 -0.382683 -2.17999
-2.7746 -0.382683 -2.7746
-3.18575 -0.55557 -2.12865
-2.70926 -0.55557 -2.70926
-3.18575 -0.55557 -2.12865
-2.70926 -0.55557 -2.70926
-3.08235 -0.707107 -2.05956
-2.62132 -0.707107 -2.62132
3.12519 -0.92388 1.2945
2.8126 -0.92388 1.87932
2.95188 -0.980785 1.22271
2.65662 -0.980785 1.7751
2.8126 -0.92388 1.87932
2.39192 -0.92388 2.39192
2.65662 -0.980785 1.7751
2.25927 -0.980785 2.25927
2.95188 -0.980785 1.22271
2.65662 -0.980785 1.7751
2.77164 -1 1.14805
2.49441 -1 1.66671
2.65662 -0.980785 1.7751
2.25927 -0.980785 2.25927
2.49441 -1 1.66671
2.12132 -1 2.12132
-3.69552 0 -1.53073
-3.32588 0 -2.22228
-3.67777 -0.19509 -1.52338
-3.3099 -0.19509 -2.21161
-3.32588 0 -2.22228
-2.82843 0 -2.82843
-3.3099 -0.19509 -2.21161
-2.81484 -0.19509 -2.81484
-3.67777 -0.19509 -1.52338
-3.3099 -0.19509 -2.21161
-3.62519 -0.382683 -1.5016
-3.26259 -0.382683 -2.17999
-3.3099 -0.19509 -2.21161
-2.81484 -0.19509 -2.81484
-3.26259 -0.382683 -2.17999
-2.7746 -0.382683 -2.7746
3.38268 0.92388 0
3.31769 0.92388 0.659929
3.55557 0.83147 0
3.48725 0.83147 0.693657
3.31769 0.92388 0.659929
3.12519 0.92388 1.2945
3.48725 0.83147 0.693657
3.28492 0.83147 1.36066
3.55557 0.83147 0
3.48725 0.83147 0.693657
3.70711 0.707107 0
3.63588 0.707107 0.723221
3.48725 0.83147 0.693657
3.28492 0.83147 1.36066
3.63588 0.707107 0.723221
3.42492 0.707107 1.41865
-0.765367 1.22465e-16 -1.84776
-0.390181 1.22465e-16 -1.96157
-0.77272 0.19509 -1.86551
-0.393929 0.19509 -1.98042
-0.77272 0.19509 -1.86551
-0.393929 0.19509 -1.98042
-0.794497 0.382683 -1.91809
-0.405031 0.382683 -2.03623
-2.12132 -1 -2.12132
-1.66671 -1 -2.49441
-1.98337 -0.980785 -1.98337
-1.55832 -0.980785 -2.3322
-1.66671 -1 -2.49441
-1.14805 -1 -2.77164
-1.55832 -0.980785 -2.3322
-1.07339 -0.980785 -2.5914
-1.98337 -0.980785 -1.98337
-1.55832 -0.980785 -2.3322
-1.85072 -0.92388 -1.85072
-1.4541 -0.92388 -2.17622
-1.55832 -0.980785 -2.3322
-1.07339 -0.980785 -2.5914
-1.4541 -0.92388 -2.17622
-1.0016 -0.92388 -2.41809
1.62132 0.707107 1.62132
1.27386 0.707107 1.90647
1.72847 0.83147 1.72847
1.35805 0.83147 2.03247
1.27386 0.707107 1.90647
0.877452 0.707107 2.11836
1.35805 0.83147 2.03247
0.935443 0.83147 2.25836
1.72847 0.83147 1.72847
1.35805 0.83147 2.03247
1.85072 0.92388 1.85072
1.4541 0.92388 2.17622
1.35805 0.83147 2.03247
0.935443 0.83147 2.25836
1.4541 0.92388 2.17622
1.0016 0.92388 2.41809
0.877452 0.707107 2.11836
0.447321 0.707107 2.24884
0.935443 0.83147 2.25836
0.476885 0.83147 2.39746
0.447321 0.707107 2.24884
1.40399e-16 0.707107 2.29289
0.476885 0.83147 2.39746
1.49678e-16 0.83147 2.44443
0.935443 0.83147 2.25836
0.476885 0.83147 2.39746
1.0016 0.92388 2.41809
0.510613 0.92388 2.56703
0.476885 0.83147 2.39746
1.49678e-16 0.83147 2.44443
0.510613 0.92388 2.56703
1.60264e-16 0.92388 2.61732
-1.46804 0.382683 -1.46804
-1.15343 0.382683 -1.72623
-1.53338 0.55557 -1.53338
-1.20477 0.55557 -1.80307
-1.15343 0.382683 -1.72623
-0.794497 0.382683 -1.91809
-1.20477 0.55557 -1.80307
-0.829861 0.55557 -2.00346
-1.53338 0.55557 -1.53338
-1.20477 0.55557 -1.80307
-1.62132 0.707107 -1.62132
-1.27386 0.707107 -1.90647
-1.20477 0.55557 -1.80307
-0.829861 0.55557 -2.00346
-1.27386 0.707107 -1.90647
-0.877452 0.707107 -2.11836
2.77164 1 1.14805
2.49441 1 1.66671
2.95188 0.980785 1.22271
2.65662 0.980785 1.7751
2.49441 1 1.66671
2.12132 1 2.12132
2.65662 0.980785 1.7751
2.25927 0.980785 2.25927
2.95188 0.980785 1.22271
2.65662 0.980785 1.7751
3.12519 0.92388 1.2945
2.8126 0.92388 1.87932
2.65662 0.980785 1.7751
2.25927 0.980785 2.25927
2.8126 0.92388 1.87932
2.39192 0.92388 2.39192
2.12132 -1 2.12132
1.66671 -1 2.49441
1.98337 -0.980785 1.98337
1.55832 -0.980785 2.3322
1.66671 -1 2.49441
1.14805 -1 2.77164
1.55832 -0.980785 2.3322
1.07339 -0.980785 2.5914
1.98337 -0.980785 1.98337
1.55832 -0.980785 2.3322
1.85072 -0.92388 1.85072
1.4541 -0.92388 2.17622
1.55832 -0.980785 2.3322
1.07339 -0.980785 2.5914
1.4541 -0.92388 2.17622
1.0016 -0.92388 2.41809
-4 0 0
-3.92314 0 -0.780361
-3.98079 -0.19509 4.87506e-16
-3.9043 -0.19509 -0.776613
-3.98079 -0.19509 4.87506e-16
-3.9043 -0.19509 -0.776613
[...]
POINT_DATA 9880
SCALARS U double 1
LOOKUP_TABLE default
0.00410129 0.0045589 0.0033894 0.00406097 0.0033894 0.00406097 0.00251061 0.00339619 0.00237753 0.00339261 0.0031858 0.00397301 0.00397301 0.00460989 0.00439458 0.00497742 0.00205896 0.00355354 0.00267792 0.00396686 0.0015887 0.00267792 0.00237753 0.00339261 0.00251061 0.00339619 0.00162195 0.00266102 0.00266102 0.00419377 0.00207863 0.00377864 0.00494736 0.00495807 0.00465137 0.00440127 0.00460122 0.00471429 0.00515648 0.00524935 0.000647695 0.00173991 0.000968294 0.00205896 0.00355354 0.00437742 0.00396686 0.0043554 0.00396686 0.0043554 0.00434412 0.00460122 0.00465137 0.00440127 0.00419377 0.00424243 0.00609785 0.0060305 0.00562887 0.00571328 0.0046729 0.00497354 0.0045418 0.0048697 0.0045418 0.0048697 0.00410129 0.0045589 0.0048697 0.00534101 0.0045589 0.00512274 0.00377864 0.00421424 0.00365323 0.00404565 0.00365323 0.00404565 0.00358449 0.00404252 0.00619426 0.00559385 0.0060305 0.00542578 0.0060305 0.00542578 0.00571328 0.00501181 0.00571328 0.00501181 0.00527446 0.00452613 0.00501181 0.00419125 0.00452613 0.00350395 0.00471429 0.00411664 0.00524935 0.00457803 0.00524935 0.00457803 0.00577185 0.0050682 0.00577185 0.0050682 0.00612786 0.00544453 0.00612786 0.00544453 0.00619426 0.00559385 0.00544608 0.00576335 0.00524856 0.00562047 0.00511362 0.0056897 0.00544608 0.00576335 0.00261648 0.00226551 0.0026876 0.00220168 0.0026876 0.00220168 0.00274807 0.00219745 0.00447801 0.00478111 0.0046729 0.00497354 0.00539322 0.00618567 0.00552546 0.00629422 0.00618567 0.00612786 0.00629422 0.00619426 0.00443508 0.00496647 0.00439684 0.00487531 0.00439684 0.00487531 0.00434844 0.00480571 0.00487531 0.00580509 0.00480571 0.00561363 0.0045589 0.00484082 0.00430994 0.00467685 0.00484082 0.00512274 0.00467685 0.00503451 0.00430994 0.00467685 0.00406097 0.00450194 0.00467685 0.00503451 0.00450194 0.00494736 0.00339261 0.00386596 0.00368281 0.00408536 0.00386596 0.00434412 0.00408536 0.00447537 0.00368281 0.00408536 0.00397301 0.00429145 0.00408536 0.00447537 0.00429145 0.00460989 0.00406097 0.00450194 0.00372858 0.00427514 0.00450194 0.00494736 0.00427514 0.00479937 0.00372858 0.00427514 0.00339619 0.00399738 0.00427514 0.00479937 0.00399738 0.00465137 0.0031858 0.0035794 0.00355144 0.00388279 0.0035794 0.00397301 0.00388279 0.0041838 0.00355144 0.00388279 0.00393401 0.0041654 0.00388279 0.0041838 0.0041654 0.00439458 0.00484259 0.00523161 0.00489323 0.00550716 0.00489323 0.00550716 0.00504163 0.00576937 0.00550716 0.00556397 0.00576937 0.00583464 0.00434844 0.00480571 0.00425273 0.00474036 0.00480571 0.00561363 0.00474036 0.00546807 0.00425273 0.00474036 0.00412069 0.00464131 0.00323371 0.00390135 0.00325139 0.00387445 0.00325139 0.00387445 0.00333238 0.00376259 0.00267792 0.00332239 0.00303527 0.00359984 0.00332239 0.00396686 0.00359984 0.00415549 0.00303527 0.00359984 0.00339261 0.00386596 0.00359984 0.00415549 0.00386596 0.00434412 0.00211557 0.00338877 0.00201689 0.00330108 0.00338877 0.00379851 0.00330108 0.00385132 0.00201689 0.00330108 0.00201177 0.00323371 0.00330108 0.00385132 0.00323371 0.00390135 0.00162195 0.00214148 0.0012905 0.00182312 0.00214148 0.00266102 0.00182312 0.00236982 0.0012905 0.00182312 0.000990133 0.00155441 0.00182312 0.00236982 0.00155441 0.00207863 0.00595385 0.00601068 0.00596803 0.00601046 0.00596803 0.00601046 0.00596841 0.00602533 0.00407713 0.00464663 0.00425907 0.00479745 0.00464663 0.0049565 0.00479745 0.00505064 0.00425907 0.00479745 0.00437671 0.00484259 0.00479745 0.00505064 0.00484259 0.00523161 0.00512274 0.00537424 0.00503451 0.00516905 0.00537424 0.00562887 0.00516905 0.00529335 0.00503451 0.00516905 0.00494736 0.00495271 0.00516905 0.00529335 0.00495271 0.00495807 0.00562887 0.00567107 0.00529335 0.00539967 0.00567107 0.00571328 0.00539967 0.00549387 0.00529335 0.00539967 0.00495807 0.00513257 0.00539967 0.00549387 0.00513257 0.00527446 0.00476653 0.00524088 0.00455692 0.00509066 0.00524088 0.00596841 0.00509066 0.0059609 0.00455692 0.00509066 0.00443508 0.00496647 0.00509066 0.0059609 0.00496647 0.00592974 0.00339619 0.00399738 0.0030286 0.00372282 0.00399738 0.00465137 0.00372282 0.00442257 0.0030286 0.00372282 0.00266102 0.00342739 0.00372282 0.00442257 0.00342739 0.00419377 0.00434412 0.00447267 0.00447537 0.00467511 0.00447267 0.00460122 0.00467511 0.00487885 0.00447537 0.00467511 0.00460989 0.00488867 0.00467511 0.00487885 0.00488867 0.00515648 0.00180812 0.00216779 0.00176156 0.00224732 0.00176156 0.00224732 0.00180359 0.00236162 0.00224732 0.00201689 0.00236162 0.00201177 0.00180359 0.00236162 0.00197562 0.00252171 0.00236162 0.00201177 0.00252171 0.00221074 0.00197562 0.00252171 0.00226862 0.00278123 0.00252171 0.00221074 0.00278123 0.00256951 0.00596841 0.00602533 0.0059609 0.0060631 0.0059609 0.0060631 0.00592974 0.006092 0.000968294 0.00151363 0.00123492 0.00190717 0.00151363 0.00205896 0.00190717 0.00236844 0.00123492 0.00190717 0.0015887 0.00213331 0.00190717 0.00236844 0.00213331 0.00267792 0.00460989 0.00488867 0.00479365 0.00512803 0.00488867 0.00515648 0.00512803 0.00546031 0.00479365 0.00512803 0.00497742 0.0053711 0.00512803 0.00546031 0.0053711 0.00575306 0.0048998 0.00529138 0.00494027 0.00533787 0.00529138 0.00595385 0.00533787 0.00596803 0.00494027 0.00533787 0.00476653 0.00524088 0.00533787 0.00596803 0.00524088 0.00596841 0.00474977 0.00504163 0.00490225 0.00521068 0.00490225 0.00521068 0.00487002 0.00524044 0.00524044 0.00595883 0.00523602 0.00594895 0.00484881 0.00523602 0.0048998 0.00529138 0.00523602 0.00594895 0.00529138 0.00595385 0.00595883 0.00607016 0.00594895 0.0060379 0.00594895 0.0060379 0.00595385 0.00601068 0.00495807 0.00513257 0.00467967 0.00494259 0.00467967 0.00494259 0.00440127 0.00474044 0.00494259 0.00501053 0.00474044 0.00475788 0.000548833 0.00145021 0.000571185 0.00142118 0.000571185 0.00142118 0.000647695 0.0011938 0.00142118 0.00167296 0.0011938 0.00173991 0.00515648 0.00520291 0.00546031 0.00549343 0.00520291 0.00524935 0.00549343 0.0055106 0.00546031 0.00549343 0.00575306 0.00576659 0.00549343 0.0055106 0.00576659 0.00577185 0.00390135 0.00439186 0.00387445 0.00435591 0.00387445 0.00435591 0.00376259 0.00433618 0.00173991 0.00259054 0.00189943 0.00269011 0.00189943 0.00269011 0.00205896 0.00280625 0.00269011 0.00348386 0.00280625 0.00355354 0.00376259 0.00433618 0.00367316 0.00433357 0.00163719 0.00260634 0.00167296 0.00258983 0.00260634 0.00358449 0.00258983 0.00350589 0.00167296 0.00258983 0.00173991 0.00259054 0.00258983 0.00350589 0.00259054 0.00344452 0.00436314 0.00484766 0.00446525 0.00490016 0.00387806 0.00446525 0.00407713 0.00464663 0.00446525 0.00490016 0.00464663 0.0049565 0.00592974 0.006092 0.00580509 0.00604103 0.006092 0.00599297 0.00604103 0.00580511 0.00580509 0.00604103 0.00561363 0.00585789 0.00604103 0.00580511 0.00585789 0.00584816 0.00419377 0.0042181 0.0039862 0.00410805 0.0042181 0.00424243 0.00410805 0.00422902 0.0039862 0.00410805 0.00377864 0.00399644 0.00410805 0.00422902 0.00399644 0.00421424 0.00452613 0.00401504 0.00430017 0.00381843 0.00401504 0.00350395 0.00381843 0.00318357 0.00430017 0.00381843 0.00410825 0.00367466 0.00381843 0.00318357 0.00367466 0.0029214 0.000796194 0.00148458 0.000648179 0.00146522 0.00148458 0.00186654 0.00146522 0.00173874 0.00207863 0.00292863 0.00186654 0.00280441 0.00292863 0.00377864 0.00280441 0.00371593 0.00186654 0.00280441 0.00173874 0.00269868 0.00280441 0.00371593 0.00269868 0.00365323 0.000648179 0.00146522 0.000572683 0.00144755 0.00146522 0.00173874 0.00144755 0.00167917 0.000572683 0.00144755 0.000548833 0.00145021 0.00561363 0.00585789 0.00546807 0.00548149 0.00546807 0.00548149 0.00536024 0.00504032 0.00173874 0.00269868 0.00167917 0.00264601 0.00269868 0.00365323 0.00264601 0.00361886 0.00167917 0.00264601 0.00163719 0.00260634 0.00264601 0.00361886 0.00260634 0.00358449 0.00195149 0.00220998 0.00190981 0.00220977 0.00220998 0.00226277 0.00220977 0.00221345 0.00190981 0.00220977 0.00189639 0.00218453 0.00220977 0.00221345 0.00218453 0.00222647 0.00552546 0.00590984 0.00543977 0.00582634 0.00590984 0.00629422 0.00582634 0.00619808 0.00543977 0.00582634 0.00534101 0.00571918 0.00582634 0.00619808 0.00571918 0.00609785 0.00412069 0.00464131 0.00395752 0.00452027 0.00395752 0.00452027 0.00378897 0.00443076 0.0043554 0.00438441 0.00447831 0.0045423 0.00438441 0.00438083 0.0045423 0.00451737 0.00447831 0.0045423 0.00460122 0.00465776 0.0045423 0.00451737 0.00465776 0.00471429 0.00440127 0.00474044 0.00432185 0.00454102 0.00474044 0.00475788 0.00454102 0.00455877 0.00432185 0.00454102 0.00424243 0.00437919 0.00454102 0.00455877 0.00437919 0.00441972 0.00379851 0.00445619 0.00385132 0.00443484 0.00385132 0.00443484 0.00390135 0.00439186 0.00629422 0.00624424 0.00619808 0.00617079 0.00624424 0.00619426 0.00617079 0.00611238 0.00619808 0.00617079 0.00609785 0.00606418 0.00617079 0.00611238 0.00606418 0.0060305 0.00534101 0.00571918 0.00523188 0.00555685 0.00571918 0.00609785 0.00555685 0.00586336 0.00523188 0.00555685 0.00512274 0.00537424 0.00555685 0.00586336 0.00537424 0.00562887 0.00497354 0.00523219 0.00492162 0.00518103 0.00523219 0.00552546 0.00518103 0.00543977 0.00492162 0.00518103 0.0048697 0.00510536 0.00518103 0.00543977 0.00510536 0.00534101 0.00411664 0.00367604 0.00434733 0.0037815 0.00367604 0.00286508 0.0037815 0.00299272 0.00434733 0.0037815 0.00457803 0.00392081 0.0037815 0.00299272 0.00392081 0.00315546 0.00226277 0.00335274 0.00221345 0.00336553 0.00221345 0.00336553 0.00222647 0.00341471 0.00378897 0.00443076 0.00366226 0.0043951 0.00366226 0.0043951 0.00361318 0.0043872 0.00189639 0.00218453 0.00187056 0.00214988 0.00344452 0.00386835 0.00348386 0.00391318 0.00386835 0.00427116 0.00391318 0.00433191 0.00348386 0.00391318 0.00355354 0.00396548 0.00391318 0.00433191 0.00396548 0.00437742 0.00358449 0.0038135 0.00350589 0.00386635 0.0038135 0.00404252 0.00386635 0.00413844 0.00350589 0.00386635 0.00344452 0.00386835 0.00386635 0.00413844 0.00386835 0.00427116 0.00542578 0.00513566 0.00521879 0.00487247 0.00513566 0.00486 0.00487247 0.00453181 0.00521879 0.00487247 0.00501181 0.00460153 0.00487247 0.00453181 0.00460153 0.00419125 0.00404565 0.0038958 0.00404409 0.00384699 0.0038958 0.00412626 0.00384699 0.00410363 0.00404409 0.00384699 0.00404252 0.00385564 0.00384699 0.00410363 0.00385564 0.00409489 0.0032252 0.00396038 0.00319751 0.00392877 0.00396038 0.0046729 0.00392877 0.00460735 0.00319751 0.00392877 0.00315542 0.00385905 0.00392877 0.00460735 0.00385905 0.0045418 0.00457803 0.00392081 0.00482312 0.00410966 0.00392081 0.00315546 0.00410966 0.00336879 0.00482312 0.00410966 0.0050682 0.00434453 0.00410966 0.00336879 0.00434453 0.00366084 0.00315542 0.00385905 0.00306524 0.00372012 0.00385905 0.0045418 0.00372012 0.00432154 0.00306524 0.00372012 0.00294564 0.00354602 0.00372012 0.00432154 0.00354602 0.00410129 0.0050682 0.00434453 0.00525637 0.00464052 0.00434453 0.00366084 0.00464052 0.00405192 0.00525637 0.00464052 0.00544453 0.00495383 0.00464052 0.00405192 0.00495383 0.00450185 0.00472451 0.00405314 0.00479194 0.0043372 0.00479194 0.0043372 0.00484766 0.00468047 0.00408193 0.00333488 0.00408313 0.00335692 0.00527446 0.0049003 0.00501053 0.00444509 0.0049003 0.00452613 0.00444509 0.00430017 0.00501053 0.00444509 0.00475788 0.00410224 0.00444509 0.00430017 0.00410224 0.00410825 0.00368556 0.00355906 0.00363007 0.00352596 0.00355906 0.00274807 0.00352596 0.0027451 0.00363007 0.00352596 0.00351435 0.00344101 0.00352596 0.0027451 0.00344101 0.00272625 0.00437742 0.00411792 0.00436641 0.00423363 0.00411792 0.00418403 0.00423363 0.00427192 0.00436641 0.00423363 0.0043554 0.00438441 0.00423363 0.00427192 0.00438441 0.00438083 0.00294564 0.00354602 0.0027309 0.00327609 0.00354602 0.00410129 0.00327609 0.00374534 0.0027309 0.00327609 0.00249855 0.00297069 0.00327609 0.00374534 0.00297069 0.0033894 0.00249855 0.00297069 0.00213601 0.0026026 0.00297069 0.0033894 0.0026026 0.00295001 0.00213601 0.0026026 0.00178943 0.00221603 0.0026026 0.00295001 0.00221603 0.00251061 0.0048872 0.00445088 0.00477373 0.00418904 0.00348702 0.00338367 0.00360888 0.00342312 0.00338367 0.00267431 0.00342312 0.00267169 0.00360888 0.00342312 0.00376776 0.00349258 0.00342312 0.00267169 0.00349258 0.00270206 0.00408313 0.00335692 0.00411578 0.00337446 0.00335692 0.00351435 0.00337446 0.00344617 0.00411578 0.00337446 0.00418403 0.00340419 0.00337446 0.00344617 0.00340419 0.00348702 0.00424243 0.00437919 0.00422902 0.00422054 0.00422902 0.00422054 0.00421424 0.00408557 0.00361318 0.0043872 0.00364125 0.00439191 0.00364125 0.00439191 0.00370224 0.00441279 0.00410825 0.00367466 0.00393997 0.00355976 0.00367466 0.0029214 0.00355976 0.00274479 0.00393997 0.00355976 0.00380132 0.00347547 0.00355976 0.00274479 0.00347547 0.00264413 0.00422725 0.00344129 0.00416469 0.00338603 0.00416469 0.00338603 0.00412626 0.00334132 0.00338603 0.00352928 0.00334132 0.00357388 0.00357388 0.00346565 0.00366136 0.00354311 0.00346565 0.0026876 0.00354311 0.00271784 0.00366136 0.00354311 0.00368556 0.00355906 0.00354311 0.00271784 0.00355906 0.00274807 0.00511221 0.00508712 0.0050815 0.00505014 0.00508712 0.00544608 0.00505014 0.00534732 0.0050815 0.00505014 0.00486 0.00484003 0.00505014 0.00534732 0.00484003 0.00524856 0.00486 0.00484003 0.00453181 0.00459458 0.00484003 0.00524856 0.00459458 0.00503909 0.00453181 0.00459458 0.00419125 0.00432906 0.00459458 0.00503909 0.00432906 0.004787 0.00412626 0.00334132 0.00410363 0.00331762 0.00370224 0.00441279 0.00374673 0.00444495 0.00374673 0.00444495 0.00379851 0.00445619 0.00419125 0.00432906 0.0038476 0.00402017 0.00432906 0.004787 0.00402017 0.00441249 0.0038476 0.00402017 0.00350395 0.003654 0.00402017 0.00441249 0.003654 0.00389332 0.00454508 0.00511362 0.00490073 0.00527985 0.0048873 0.00490073 0.00511221 0.00508712 0.00490073 0.00527985 0.00508712 0.00544608 0.00341471 0.00370224 0.00344508 0.00374673 0.00344508 0.00374673 0.00338877 0.00379851 0.00557149 0.00514808 0.00546393 0.00510757 0.00546393 0.00510757 0.00520096 0.00490374 0.00559385 0.00535104 0.00550981 0.00531427 0.00550981 0.00531427 0.00542578 0.00513566 0.00531427 0.0050815 0.00513566 0.00486 0.00544453 0.00495383 0.00551919 0.00522073 0.00495383 0.00450185 0.00522073 0.0048873 0.00551919 0.00522073 0.00559385 0.00535104 0.00137471 0.00156436 0.00139312 0.0015702 0.00156436 0.000327239 0.0015702 0.000359058 0.00139312 0.0015702 0.00146602 0.00171168 0.0015702 0.000359058 0.00171168 0.00055629 0.00467955 0.00437671 0.00502199 0.00454475 0.0058067 0.00531261 0.00570194 0.00522358 0.00353983 0.00375689 0.00402829 0.00401806 0.00375689 0.00371655 0.00401806 0.00387806 0.00402829 0.00401806 0.004437 0.00420883 0.00401806 0.00387806 0.00420883 0.00407713 0.00524856 0.00543451 0.00503909 0.00541749 0.00543451 0.00562047 0.00541749 0.00542112 0.00511313 0.00510052 0.00460375 0.0046178 0.00441249 0.00460375 0.00389332 0.00394447 0.00460375 0.0046178 0.00394447 0.00402786 0.00383757 0.0040105 0.00333949 0.0038018 0.0040105 0.00412069 0.0038018 0.00395752 0.00333949 0.0038018 0.00282636 0.0035771 0.0038018 0.00395752 0.0035771 0.00378897 0.00146949 0.00196997 0.00182259 0.00235361 0.00196997 0.00237753 0.00235361 0.00278167 0.00182259 0.00235361 0.00225747 0.00271835 0.00235361 0.00278167 0.00271835 0.0031858 0.00389332 0.00394447 0.00332891 0.00330224 0.00394447 0.00402786 0.00330224 0.0034338 0.00332891 0.00330224 0.0028528 0.00277391 0.00330224 0.0034338 0.00277391 0.00289779 0.00350395 0.003654 0.00318357 0.00327764 0.003654 0.00389332 0.00327764 0.00332891 0.00327764 0.00332891 0.00297211 0.0028528 0.00404252 0.00385564 0.00413844 0.0038879 0.00413844 0.0038879 0.00427116 0.00394674 0.0038879 0.00408193 0.00394674 0.00408313 0.00427116 0.00394674 0.00433191 0.00403074 0.00394674 0.00408313 0.00403074 0.00411578 0.00433191 0.00403074 0.00437742 0.00411792 0.00403074 0.00411578 0.00411792 0.00418403 0.00421424 0.00408557 0.00412994 0.00397743 0.00408557 0.00422725 0.00397743 0.00416469 0.00412994 0.00397743 0.00404565 0.0038958 0.00576937 0.00583464 0.00591865 0.00601806 0.00583464 0.00592391 0.00601806 0.0061283 0.00591865 0.00601806 0.00595883 0.00607016 0.00601806 0.0061283 0.00607016 0.00610968 0.00536024 0.00504032 0.00522577 0.00474613 0.00504032 0.00545454 0.00474613 0.0049551 0.00522577 0.00474613 0.00504433 0.00462664 0.00474613 0.0049551 0.00462664 0.00457499 0.00299134 0.00350521 0.00312076 0.00361202 0.00312076 0.00361202 0.00327191 0.0038351 0.00246726 0.00305799 0.00268872 0.00318526 0.00305799 0.00225747 0.00318526 0.00232959 0.00268872 0.00318526 0.00301018 0.00353806 0.00318526 0.00232959 0.00353806 0.00279854 0.00225747 0.00271835 0.00232959 0.0031057 0.00271835 0.0031858 0.0031057 0.00355144 0.00232959 0.0031057 0.00279854 0.00337997 0.0031057 0.00355144 0.00337997 0.00393401 0.00327191 0.0038351 0.00347555 0.00413497 0.00347555 0.00413497 0.00376333 0.00447251 0.00351435 0.00344101 0.00344617 0.00338012 0.00344101 0.00272625 0.00338012 0.0026975 0.00338012 0.0026975 0.00338367 0.00267431 0.00438083 0.00360323 0.00451737 0.00384853 0.00451737 0.00384853 0.00471429 0.00441547 0.00384853 0.00393844 0.00441547 0.00411664 0.00376776 0.00349258 0.00393844 0.00357109 0.00349258 0.00270206 0.00357109 0.00277003 0.00393844 0.00357109 0.00411664 0.00367604 0.00357109 0.00277003 0.00367604 0.00286508 0.00475788 0.00410224 0.00455877 0.00382881 0.00410224 0.00410825 0.00382881 0.00393997 0.00455877 0.00382881 0.00441972 0.00363094 0.0038351 0.00415515 0.00413497 0.00463435 0.00413497 0.00463435 0.00447251 0.00508876 0.00380132 0.00347547 0.00367282 0.00341417 0.00347547 0.00264413 0.00341417 0.00260517 0.00367282 0.00341417 0.00357528 0.00338819 0.00341417 0.00260517 0.00338819 0.00261648 0.00376333 0.00447251 0.00413461 0.00480734 0.00405192 0.00413461 0.00450185 0.00454508 0.00413461 0.00480734 0.00454508 0.00511362 0.000332583 0.000548833 0.000346924 0.000571185 0.000346924 0.000571185 0.000411228 0.000647695 0.00357528 0.00338819 0.00352928 0.0033984 0.00338819 0.00261648 0.0033984 0.00265204 0.00352928 0.0033984 0.00357388 0.00346565 0.0033984 0.00265204 0.00346565 0.0026876 0.000327239 0.000411228 0.000359058 0.000582173 0.000411228 0.000647695 0.000582173 0.000807995 0.000359058 0.000582173 0.00055629 0.000788493 0.000582173 0.000807995 0.000788493 0.000968294 0.00447251 0.00508876 0.00480734 0.00538585 0.00480734 0.00538585 0.00511362 0.00540166 0.00538585 0.00550706 0.00540166 0.0056897 0.000841435 0.000990133 0.000592797 0.000796194 0.000592797 0.000796194 0.000435381 0.000648179 0.00309215 0.00381219 0.00317488 0.00390076 0.00381219 0.00447801 0.00390076 0.00457545 0.00317488 0.00390076 0.0032252 0.00396038 0.00390076 0.00457545 0.00396038 0.0046729 0.000435381 0.000648179 0.000351346 0.000572683 0.000351346 0.000572683 0.000332583 0.000548833 0.00526539 0.00533685 0.00531296 0.00533016 0.00531296 0.00533016 0.00538167 0.00544414 0.00274807 0.00247276 0.0027451 0.00265077 0.00247276 0.00219745 0.00265077 0.00222408 0.0027451 0.00265077 0.00272625 0.00267588 0.00265077 0.00222408 0.00267588 0.00230512 0.00272625 0.00267588 0.0026975 0.00267627 0.00267588 0.00230512 0.00267627 0.00246927 0.0026975 0.00267627 0.00267431 0.00269001 0.00267627 0.00246927 0.00269001 0.00273093 0.000788493 0.000968294 0.00104887 0.00123492 0.00104887 0.00123492 0.00132159 0.0015887 0.00267431 0.00269001 0.00267169 0.00272594 0.00269001 0.00273093 0.00272594 0.00302525 0.00267169 0.00272594 0.00270206 0.00279307 0.00272594 0.00302525 0.00279307 0.00326259 0.00273093 0.00299436 0.00302525 0.00326779 0.00279307 0.00326259 0.00288521 0.00341207 0.00288521 0.00341207 0.00299134 0.00350521 0.00341207 0.0036589 0.00350521 0.00370507 0.0027659 0.00254043 0.0026613 0.00237547 0.0026613 0.00237547 0.00259967 0.00230178 0.00260517 0.00259967 0.00261648 0.00244099 0.00259967 0.00230178 0.00244099 0.00226551 0.000933806 0.00132159 0.00120149 0.00163622 0.00132159 0.0015887 0.00163622 0.00198312 0.00120149 0.00163622 0.00146949 0.00196997 0.00163622 0.001983