# vtk DataFile Version 3.0
#This file was generated by the deal.II library on 2023/3/1 at 4:16:57
ASCII
DATASET UNSTRUCTURED_GRID

FIELD FieldData 2
CYCLE 1 1 int
11
TIME 1 1 double
0.022
POINTS 2152 double
-1.41421 1.22465e-16 1.41421
-2 0 0
-1.62132 0.707107 1.62132
-2.29289 0.707107 2.80798e-16
-1.62132 0.707107 1.62132
-2.29289 0.707107 2.80798e-16
-2.12132 1 2.12132
-3 1 0
-2.12132 -1 2.12132
-3 -1 0
-1.62132 -0.707107 1.62132
-2.29289 -0.707107 2.80798e-16
-1.62132 -0.707107 1.62132
-2.29289 -0.707107 2.80798e-16
-1.41421 1.22465e-16 1.41421
-2 0 0
-2.82843 0 2.82843
-4 0 0
-2.62132 -0.707107 2.62132
-3.70711 -0.707107 4.5399e-16
-2.62132 -0.707107 2.62132
-3.70711 -0.707107 4.5399e-16
-2.12132 -1 2.12132
-3 -1 0
-2.12132 1 2.12132
-3 1 0
-2.62132 0.707107 2.62132
-3.70711 0.707107 4.5399e-16
-2.62132 0.707107 2.62132
-3.70711 0.707107 4.5399e-16
-2.82843 0 2.82843
-4 0 0
-2 0 0
-1.41421 1.22465e-16 -1.41421
-2.29289 0.707107 2.80798e-16
-1.62132 0.707107 -1.62132
-1.41421 1.22465e-16 -1.41421
0 0 -2
-1.62132 0.707107 -1.62132
-4.21198e-16 0.707107 -2.29289
-2.29289 0.707107 2.80798e-16
-1.62132 0.707107 -1.62132
-3 1 0
-2.12132 1 -2.12132
-1.62132 0.707107 -1.62132
-4.21198e-16 0.707107 -2.29289
-2.12132 1 -2.12132
0 1 -3
-3 -1 0
-2.12132 -1 -2.12132
-2.29289 -0.707107 2.80798e-16
-1.62132 -0.707107 -1.62132
-2.12132 -1 -2.12132
0 -1 -3
-1.62132 -0.707107 -1.62132
-4.21198e-16 -0.707107 -2.29289
-2.29289 -0.707107 2.80798e-16
-1.62132 -0.707107 -1.62132
-2 0 0
-1.41421 1.22465e-16 -1.41421
-1.62132 -0.707107 -1.62132
-4.21198e-16 -0.707107 -2.29289
-1.41421 1.22465e-16 -1.41421
0 0 -2
-4 0 0
-2.82843 0 -2.82843
-3.70711 -0.707107 4.5399e-16
-2.62132 -0.707107 -2.62132
-2.82843 0 -2.82843
0 0 -4
-2.62132 -0.707107 -2.62132
-6.80984e-16 -0.707107 -3.70711
-3.70711 -0.707107 4.5399e-16
-2.62132 -0.707107 -2.62132
-3 -1 0
-2.12132 -1 -2.12132
-2.62132 -0.707107 -2.62132
-6.80984e-16 -0.707107 -3.70711
-2.12132 -1 -2.12132
0 -1 -3
-3 1 0
-2.12132 1 -2.12132
-3.70711 0.707107 4.5399e-16
-2.62132 0.707107 -2.62132
-2.12132 1 -2.12132
0 1 -3
-2.62132 0.707107 -2.62132
-6.80984e-16 0.707107 -3.70711
-3.70711 0.707107 4.5399e-16
-2.62132 0.707107 -2.62132
-4 0 0
-2.82843 0 -2.82843
-2.62132 0.707107 -2.62132
-6.80984e-16 0.707107 -3.70711
-2.82843 0 -2.82843
0 0 -4
0 0 -2
1.41421 1.22465e-16 -1.41421
-4.21198e-16 0.707107 -2.29289
1.62132 0.707107 -1.62132
-4.21198e-16 0.707107 -2.29289
1.62132 0.707107 -1.62132
0 1 -3
2.12132 1 -2.12132
0 -1 -3
2.12132 -1 -2.12132
-4.21198e-16 -0.707107 -2.29289
1.62132 -0.707107 -1.62132
-4.21198e-16 -0.707107 -2.29289
1.62132 -0.707107 -1.62132
0 0 -2
1.41421 1.22465e-16 -1.41421
0 0 -4
2.82843 0 -2.82843
-6.80984e-16 -0.707107 -3.70711
2.62132 -0.707107 -2.62132
-6.80984e-16 -0.707107 -3.70711
2.62132 -0.707107 -2.62132
0 -1 -3
2.12132 -1 -2.12132
0 1 -3
2.12132 1 -2.12132
-6.80984e-16 0.707107 -3.70711
2.62132 0.707107 -2.62132
-6.80984e-16 0.707107 -3.70711
2.62132 0.707107 -2.62132
0 0 -4
2.82843 0 -2.82843
2 0 0
1.84776 1.22465e-16 0.765367
2.07612 0.382683 0
1.91809 0.382683 0.794497
2.07612 -0.382683 0
1.91809 -0.382683 0.794497
2 0 0
1.84776 1.22465e-16 0.765367
2.62132 -0.707107 -2.62132
3.42492 -0.707107 -1.41865
2.39192 -0.92388 -2.39192
3.12519 -0.92388 -1.2945
2.39192 -0.92388 -2.39192
3.12519 -0.92388 -1.2945
2.12132 -1 -2.12132
2.77164 -1 -1.14805
1.62132 0.707107 -1.62132
2.11836 0.707107 -0.877452
1.85072 0.92388 -1.85072
2.41809 0.92388 -1.0016
1.85072 0.92388 -1.85072
2.41809 0.92388 -1.0016
2.12132 1 -2.12132
2.77164 1 -1.14805
2.12132 -1 -2.12132
2.77164 -1 -1.14805
1.85072 -0.92388 -1.85072
2.41809 -0.92388 -1.0016
1.85072 -0.92388 -1.85072
2.41809 -0.92388 -1.0016
1.62132 -0.707107 -1.62132
2.11836 -0.707107 -0.877452
2.12132 1 -2.12132
2.77164 1 -1.14805
2.39192 0.92388 -2.39192
3.12519 0.92388 -1.2945
2.39192 0.92388 -2.39192
3.12519 0.92388 -1.2945
2.62132 0.707107 -2.62132
3.42492 0.707107 -1.41865
4 0 0
3.69552 0 1.53073
3.92388 -0.382683 0
3.62519 -0.382683 1.5016
3.92388 0.382683 0
3.62519 0.382683 1.5016
4 0 0
3.69552 0 1.53073
1.41421 1.22465e-16 -1.41421
1.84776 1.22465e-16 -0.765367
1.46804 0.382683 -1.46804
1.91809 0.382683 -0.794497
1.84776 1.22465e-16 -0.765367
2 0 0
1.91809 0.382683 -0.794497
2.07612 0.382683 0
1.46804 0.382683 -1.46804
1.91809 0.382683 -0.794497
1.62132 0.707107 -1.62132
2.11836 0.707107 -0.877452
1.91809 0.382683 -0.794497
2.07612 0.382683 0
2.11836 0.707107 -0.877452
2.29289 0.707107 0
1.62132 -0.707107 -1.62132
2.11836 -0.707107 -0.877452
1.46804 -0.382683 -1.46804
1.91809 -0.382683 -0.794497
2.11836 -0.707107 -0.877452
2.29289 -0.707107 0
1.91809 -0.382683 -0.794497
2.07612 -0.382683 0
1.46804 -0.382683 -1.46804
1.91809 -0.382683 -0.794497
1.41421 1.22465e-16 -1.41421
1.84776 1.22465e-16 -0.765367
1.91809 -0.382683 -0.794497
2.07612 -0.382683 0
1.84776 1.22465e-16 -0.765367
2 0 0
2.82843 0 -2.82843
3.69552 0 -1.53073
2.7746 -0.382683 -2.7746
3.62519 -0.382683 -1.5016
3.69552 0 -1.53073
4 0 0
3.62519 -0.382683 -1.5016
3.92388 -0.382683 0
2.7746 -0.382683 -2.7746
3.62519 -0.382683 -1.5016
2.62132 -0.707107 -2.62132
3.42492 -0.707107 -1.41865
3.62519 -0.382683 -1.5016
3.92388 -0.382683 0
3.42492 -0.707107 -1.41865
3.70711 -0.707107 0
2.62132 0.707107 -2.62132
3.42492 0.707107 -1.41865
2.7746 0.382683 -2.7746
3.62519 0.382683 -1.5016
3.42492 0.707107 -1.41865
3.70711 0.707107 0
3.62519 0.382683 -1.5016
3.92388 0.382683 0
2.7746 0.382683 -2.7746
3.62519 0.382683 -1.5016
2.82843 0 -2.82843
3.69552 0 -1.53073
3.62519 0.382683 -1.5016
3.92388 0.382683 0
3.69552 0 -1.53073
4 0 0
0 0 2
-0.765367 1.22465e-16 1.84776
1.27126e-16 0.382683 2.07612
-0.794497 0.382683 1.91809
-0.765367 1.22465e-16 1.84776
-1.41421 1.22465e-16 1.41421
-0.794497 0.382683 1.91809
-1.46804 0.382683 1.46804
1.27126e-16 0.382683 2.07612
-0.794497 0.382683 1.91809
1.40399e-16 0.707107 2.29289
-0.877452 0.707107 2.11836
-0.794497 0.382683 1.91809
-1.46804 0.382683 1.46804
-0.877452 0.707107 2.11836
-1.62132 0.707107 1.62132
1.40399e-16 0.707107 2.29289
-0.877452 0.707107 2.11836
1.60264e-16 0.92388 2.61732
-1.0016 0.92388 2.41809
-0.877452 0.707107 2.11836
-1.62132 0.707107 1.62132
-1.0016 0.92388 2.41809
-1.85072 0.92388 1.85072
1.60264e-16 0.92388 2.61732
-1.0016 0.92388 2.41809
0 1 3
-1.14805 1 2.77164
-1.0016 0.92388 2.41809
-1.85072 0.92388 1.85072
-1.14805 1 2.77164
-2.12132 1 2.12132
0 -1 3
-1.14805 -1 2.77164
1.60264e-16 -0.92388 2.61732
-1.0016 -0.92388 2.41809
-1.14805 -1 2.77164
-2.12132 -1 2.12132
-1.0016 -0.92388 2.41809
-1.85072 -0.92388 1.85072
1.60264e-16 -0.92388 2.61732
-1.0016 -0.92388 2.41809
1.40399e-16 -0.707107 2.29289
-0.877452 -0.707107 2.11836
-1.0016 -0.92388 2.41809
-1.85072 -0.92388 1.85072
-0.877452 -0.707107 2.11836
-1.62132 -0.707107 1.62132
1.40399e-16 -0.707107 2.29289
-0.877452 -0.707107 2.11836
1.27126e-16 -0.382683 2.07612
-0.794497 -0.382683 1.91809
-0.877452 -0.707107 2.11836
-1.62132 -0.707107 1.62132
-0.794497 -0.382683 1.91809
-1.46804 -0.382683 1.46804
1.27126e-16 -0.382683 2.07612
-0.794497 -0.382683 1.91809
0 0 2
-0.765367 1.22465e-16 1.84776
-0.794497 -0.382683 1.91809
-1.46804 -0.382683 1.46804
-0.765367 1.22465e-16 1.84776
-1.41421 1.22465e-16 1.41421
0 0 4
-1.53073 0 3.69552
2.40268e-16 -0.382683 3.92388
-1.5016 -0.382683 3.62519
-1.53073 0 3.69552
-2.82843 0 2.82843
-1.5016 -0.382683 3.62519
-2.7746 -0.382683 2.7746
2.40268e-16 -0.382683 3.92388
-1.5016 -0.382683 3.62519
2.26995e-16 -0.707107 3.70711
-1.41865 -0.707107 3.42492
-1.5016 -0.382683 3.62519
-2.7746 -0.382683 2.7746
-1.41865 -0.707107 3.42492
-2.62132 -0.707107 2.62132
2.26995e-16 -0.707107 3.70711
-1.41865 -0.707107 3.42492
2.0713e-16 -0.92388 3.38268
-1.2945 -0.92388 3.12519
-1.41865 -0.707107 3.42492
-2.62132 -0.707107 2.62132
-1.2945 -0.92388 3.12519
-2.39192 -0.92388 2.39192
2.0713e-16 -0.92388 3.38268
-1.2945 -0.92388 3.12519
0 -1 3
-1.14805 -1 2.77164
-1.2945 -0.92388 3.12519
-2.39192 -0.92388 2.39192
-1.14805 -1 2.77164
-2.12132 -1 2.12132
0 1 3
-1.14805 1 2.77164
2.0713e-16 0.92388 3.38268
-1.2945 0.92388 3.12519
-1.14805 1 2.77164
-2.12132 1 2.12132
-1.2945 0.92388 3.12519
-2.39192 0.92388 2.39192
2.0713e-16 0.92388 3.38268
-1.2945 0.92388 3.12519
2.26995e-16 0.707107 3.70711
-1.41865 0.707107 3.42492
-1.2945 0.92388 3.12519
-2.39192 0.92388 2.39192
-1.41865 0.707107 3.42492
-2.62132 0.707107 2.62132
2.26995e-16 0.707107 3.70711
-1.41865 0.707107 3.42492
2.40268e-16 0.382683 3.92388
-1.5016 0.382683 3.62519
-1.41865 0.707107 3.42492
-2.62132 0.707107 2.62132
-1.5016 0.382683 3.62519
-2.7746 0.382683 2.7746
2.40268e-16 0.382683 3.92388
-1.5016 0.382683 3.62519
0 0 4
-1.53073 0 3.69552
-1.5016 0.382683 3.62519
-2.7746 0.382683 2.7746
-1.53073 0 3.69552
-2.82843 0 2.82843
2.56703 0.92388 0.510613
2.41809 0.92388 1.0016
2.75101 0.980785 0.547211
2.5914 0.980785 1.07339
2.75101 0.980785 0.547211
2.5914 0.980785 1.07339
2.94236 1 0.585271
2.77164 1 1.14805
2.94236 -1 0.585271
2.77164 -1 1.14805
2.75101 -0.980785 0.547211
2.5914 -0.980785 1.07339
2.75101 -0.980785 0.547211
2.5914 -0.980785 1.07339
2.56703 -0.92388 0.510613
2.41809 -0.92388 1.0016
2.29289 0.707107 0
2.24884 0.707107 0.447321
2.44443 0.83147 0
2.39746 0.83147 0.476885
2.24884 0.707107 0.447321
2.11836 0.707107 0.877452
2.39746 0.83147 0.476885
2.25836 0.83147 0.935443
2.41809 0.92388 1.0016
2.17622 0.92388 1.4541
2.5914 0.980785 1.07339
2.3322 0.980785 1.55832
2.17622 0.92388 1.4541
1.85072 0.92388 1.85072
2.3322 0.980785 1.55832
1.98337 0.980785 1.98337
2.5914 0.980785 1.07339
2.3322 0.980785 1.55832
2.77164 1 1.14805
2.49441 1 1.66671
2.77164 -1 1.14805
2.49441 -1 1.66671
2.5914 -0.980785 1.07339
2.3322 -0.980785 1.55832
2.5914 -0.980785 1.07339
2.3322 -0.980785 1.55832
2.41809 -0.92388 1.0016
2.17622 -0.92388 1.4541
2.3322 -0.980785 1.55832
1.98337 -0.980785 1.98337
2.17622 -0.92388 1.4541
1.85072 -0.92388 1.85072
2.44443 -0.83147 0
2.39746 -0.83147 0.476885
2.29289 -0.707107 0
2.24884 -0.707107 0.447321
2.39746 -0.83147 0.476885
2.25836 -0.83147 0.935443
[...]
POINT_DATA 2152
SCALARS U double 1
LOOKUP_TABLE default
4.5599e-05 -1.22709e-05 4.60722e-05 -1.23576e-05 4.60722e-05 -1.23576e-05 -1.24751e-05 3.28732e-06 -1.24751e-05 3.28733e-06 4.60722e-05 -1.23576e-05 4.60722e-05 -1.23576e-05 4.5599e-05 -1.22709e-05 -3.3104e-05 8.80078e-06 2.45866e-05 -6.56516e-06 2.45866e-05 -6.56516e-06 -1.24751e-05 3.28733e-06 -1.24751e-05 3.28732e-06 2.45866e-05 -6.56516e-06 2.45866e-05 -6.56516e-06 -3.3104e-05 8.80078e-06 -1.22709e-05 4.00092e-06 -1.23576e-05 3.53036e-06 4.00092e-06 -4.66372e-06 3.53036e-06 -1.8231e-06 -1.23576e-05 3.53036e-06 3.28732e-06 -9.08568e-07 3.53036e-06 -1.8231e-06 -9.08568e-07 4.15508e-07 3.28733e-06 -9.0857e-07 -1.23576e-05 3.53036e-06 -9.0857e-07 4.15483e-07 3.53036e-06 -1.82309e-06 -1.23576e-05 3.53036e-06 -1.22709e-05 4.00092e-06 3.53036e-06 -1.82309e-06 4.00092e-06 -4.66372e-06 8.80078e-06 -2.2794e-06 -6.56516e-06 1.70987e-06 -2.2794e-06 3.63613e-07 1.70987e-06 -2.78199e-07 -6.56516e-06 1.70987e-06 3.28733e-06 -9.0857e-07 1.70987e-06 -2.78199e-07 -9.0857e-07 4.15483e-07 3.28732e-06 -9.08568e-07 -6.56516e-06 1.7099e-06 -9.08568e-07 4.15508e-07 1.7099e-06 -2.78316e-07 -6.56516e-06 1.7099e-06 8.80078e-06 -2.2794e-06 1.7099e-06 -2.78316e-07 -2.2794e-06 3.63613e-07 -4.66372e-06 1.80422e-05 -1.8231e-06 3.80955e-06 -1.8231e-06 3.80955e-06 4.15508e-07 -7.93859e-07 4.15483e-07 -7.93775e-07 -1.82309e-06 3.80952e-06 -1.82309e-06 3.80952e-06 -4.66372e-06 1.80422e-05 3.63613e-07 8.1729e-07 -2.78199e-07 -6.17986e-07 -2.78199e-07 -6.17986e-07 4.15483e-07 -7.93775e-07 4.15508e-07 -7.93859e-07 -2.78316e-07 -6.17553e-07 -2.78316e-07 -6.17553e-07 3.63613e-07 8.1729e-07 0.000831724 0.00116103 0.000885013 0.00167078 0.000885013 0.00167078 0.000831724 0.00116103 -6.17986e-07 8.91681e-06 -7.0588e-07 4.36655e-06 -7.0588e-07 4.36655e-06 -7.93775e-07 -1.09358e-06 3.80955e-06 -1.93688e-05 1.50784e-06 4.44949e-06 1.50784e-06 4.44949e-06 -7.93859e-07 -1.09344e-06 -7.93775e-07 -1.09358e-06 1.50787e-06 4.44954e-06 1.50787e-06 4.44954e-06 3.80952e-06 -1.93688e-05 -7.93859e-07 -1.09344e-06 -7.05706e-07 4.36649e-06 -7.05706e-07 4.36649e-06 -6.17553e-07 8.91294e-06 -1.09217e-05 -8.14075e-05 3.96994e-05 5.99895e-05 3.96965e-05 5.99879e-05 -1.09217e-05 -8.14075e-05 1.80422e-05 -0.000138764 1.09259e-05 -0.000107621 -0.000138764 0.000831724 -0.000107621 0.000885013 1.09259e-05 -0.000107621 3.80955e-06 -1.93688e-05 -0.000107621 0.000885013 -1.93688e-05 0.000810169 3.80952e-06 -1.93688e-05 1.09259e-05 -0.000107621 -1.93688e-05 0.000810169 -0.000107621 0.000885013 1.09259e-05 -0.000107621 1.80422e-05 -0.000138764 -0.000107621 0.000885013 -0.000138764 0.000831724 8.1729e-07 1.66706e-06 9.96518e-08 -7.90931e-06 1.66706e-06 -1.09217e-05 -7.90931e-06 3.96994e-05 9.96518e-08 -7.90931e-06 -6.17986e-07 8.91681e-06 -7.90931e-06 3.96994e-05 8.91681e-06 0.000121304 -6.17553e-07 8.91294e-06 9.9868e-08 -7.90854e-06 8.91294e-06 0.000121312 -7.90854e-06 3.96965e-05 9.9868e-08 -7.90854e-06 8.1729e-07 1.66706e-06 -7.90854e-06 3.96965e-05 1.66706e-06 -1.09217e-05 -0.000147295 -6.60624e-05 -0.000153269 -6.65347e-05 -6.60624e-05 4.5599e-05 -6.65347e-05 4.58356e-05 -0.000153269 -6.65347e-05 -0.000152739 -6.65334e-05 -6.65347e-05 4.58356e-05 -6.65334e-05 4.60722e-05 -0.000152739 -6.65334e-05 -4.85149e-05 -2.46707e-05 -6.65334e-05 4.60722e-05 -2.46707e-05 1.67986e-05 -4.85149e-05 -2.46707e-05 4.85498e-05 1.73892e-05 -2.46707e-05 1.67986e-05 1.73892e-05 -1.24751e-05 4.85497e-05 1.73892e-05 -4.85149e-05 -2.46707e-05 1.73892e-05 -1.24751e-05 -2.46707e-05 1.67986e-05 -4.85149e-05 -2.46707e-05 -0.000152739 -6.65334e-05 -2.46707e-05 1.67986e-05 -6.65334e-05 4.60722e-05 -0.000152739 -6.65334e-05 -0.000153269 -6.65347e-05 -6.65334e-05 4.60722e-05 -6.65347e-05 4.58356e-05 -0.000153269 -6.65347e-05 -0.000147295 -6.60624e-05 -6.65347e-05 4.58356e-05 -6.60624e-05 4.5599e-05 0.000124559 4.53841e-05 1.74022e-05 6.0201e-06 4.53841e-05 -3.3104e-05 6.0201e-06 -4.25868e-06 1.74022e-05 6.0201e-06 -8.93547e-05 -3.4225e-05 6.0201e-06 -4.25868e-06 -3.4225e-05 2.45866e-05 -8.93547e-05 -3.4225e-05 -1.92208e-05 -8.78757e-06 -3.4225e-05 2.45866e-05 -8.78757e-06 6.05577e-06 -1.92208e-05 -8.78757e-06 4.85497e-05 1.73892e-05 -8.78757e-06 6.05577e-06 1.73892e-05 -1.24751e-05 4.85498e-05 1.73892e-05 -1.92207e-05 -8.78757e-06 1.73892e-05 -1.24751e-05 -8.78757e-06 6.05577e-06 -1.92207e-05 -8.78757e-06 -8.93547e-05 -3.4225e-05 -8.78757e-06 6.05577e-06 -3.4225e-05 2.45866e-05 -8.93547e-05 -3.4225e-05 1.74022e-05 6.02011e-06 -3.4225e-05 2.45866e-05 6.02011e-06 -4.25869e-06 1.74022e-05 6.02011e-06 0.000124559 4.53841e-05 6.02011e-06 -4.25869e-06 4.53841e-05 -3.3104e-05 0.00134995 0.000579677 0.00114373 0.000493625 0.00114373 0.000493625 0.000907223 0.000513289 0.000907228 0.000513289 0.00114373 0.000493625 0.00114373 0.000493625 0.00134995 0.000579677 0.000810169 0.00158439 0.000710372 0.00149271 0.00158439 0.00146489 0.00149271 0.000962416 0.000579677 0.000965273 0.000493625 0.000894582 0.000965273 0.00148762 0.000894582 0.002041 0.000493625 0.000894582 0.000513289 0.000807569 0.000513289 0.000807567 0.000493625 0.000894582 0.000493625 0.000894582 0.000579677 0.000965273 0.000894582 0.002041 0.000965273 0.00148762 0.000710372 0.00149271 0.000810169 0.00158439 0.00149271 0.000962416 0.00158439 0.00146489 4.44949e-06 -4.0308e-06 1.67803e-06 2.17953e-06 1.67803e-06 2.17953e-06 -1.09344e-06 -9.01314e-06 -1.09358e-06 -9.01302e-06 1.67798e-06 2.17941e-06 1.67798e-06 2.17941e-06 4.44954e-06 -4.03078e-06 0.00146489 0.00120107 0.000962416 0.00106736 0.00120107 0.0012624 0.00106736 0.000886053 0.000962416 0.00106736 0.000579677 0.000965273 0.000579677 0.000965273 0.000962416 0.00106736 0.000962416 0.00106736 0.00146489 0.00120107 0.00106736 0.000886053 0.00120107 0.0012624 8.91681e-06 6.51105e-05 6.64168e-06 -3.03333e-05 6.51105e-05 0.000121304 -3.03333e-05 0.000339213 6.64168e-06 -3.03333e-05 4.36655e-06 -2.79785e-05 -3.03333e-05 0.000339213 -2.79785e-05 0.000473965 0.000121304 0.00112274 0.000339213 0.00100613 0.00112274 0.0002076 0.00100613 0.000499487 0.000339213 0.00100613 0.000473965 0.000727562 0.000520633 0.000813804 0.000484648 0.000870238 0.000813804 0.0012931 0.000870238 0.00194143 0.000484648 0.000870238 0.000513289 0.000807567 0.000513289 0.000807569 0.000484657 0.000870232 0.000484657 0.000870232 0.000520696 0.000813797 0.000870232 0.00194144 0.000813797 0.00129311 0.000473998 0.000728319 0.000339112 0.00100695 0.000339112 0.00100695 0.000121312 0.0011227 0.00100695 0.000500208 0.0011227 0.000207547 4.36649e-06 -2.79853e-05 6.63972e-06 -3.03086e-05 -2.79853e-05 0.000473998 -3.03086e-05 0.000339112 6.63972e-06 -3.03086e-05 8.91294e-06 6.51126e-05 -3.03086e-05 0.000339112 6.51126e-05 0.000121312 4.36655e-06 -2.79785e-05 1.63648e-06 -4.06483e-06 -2.79785e-05 0.000473965 -4.06483e-06 0.000522553 1.63648e-06 -4.06483e-06 -1.09358e-06 -9.01302e-06 -4.06483e-06 0.000522553 -9.01302e-06 0.000511026 -1.93688e-05 0.0003954 -7.45968e-06 4.12174e-05 0.0003954 0.000810169 4.12174e-05 0.000710372 -7.45968e-06 4.12174e-05 4.44949e-06 -4.0308e-06 4.12174e-05 0.000710372 -4.0308e-06 0.000582388 4.44954e-06 -4.03078e-06 -7.45965e-06 4.12173e-05 -4.03078e-06 0.000582388 4.12173e-05 0.000710372 -7.45965e-06 4.12173e-05 -1.93688e-05 0.0003954 4.12173e-05 0.000710372 0.0003954 0.000810169 -1.09344e-06 -9.01314e-06 1.63653e-06 -4.06652e-06 -9.01314e-06 0.000511026 -4.06652e-06 0.000522558 1.63653e-06 -4.06652e-06 4.36649e-06 -2.79853e-05 -4.06652e-06 0.000522558 -2.79853e-05 0.000473998 0.000885013 0.0012779 0.000847591 0.00158402 0.0012779 0.00167078 0.00158402 0.0017359 0.000847591 0.00158402 0.000810169 0.00158439 0.00158402 0.0017359 0.00158439 0.00146489 0.0002076 0.000548695 0.000499487 0.000743726 0.000499487 0.000743726 0.000520633 0.000813804 0.000520696 0.000813797 0.000500208 0.0007436 0.000500208 0.0007436 0.000207547 0.000548723 0.000810169 0.00158439 0.000847591 0.00158402 0.00158439 0.00146489 0.00158402 0.0017359 0.000847591 0.00158402 0.000885013 0.0012779 0.00158402 0.0017359 0.0012779 0.00167078 3.96994e-05 4.98445e-05 8.05018e-05 0.000789796 4.98445e-05 5.99895e-05 0.000789796 4.65701e-05 8.05018e-05 0.000789796 0.000121304 0.00112274 0.000789796 4.65701e-05 0.00112274 0.0002076 0.000121312 0.0011227 8.05043e-05 0.000789811 0.0011227 0.000207547 0.000789811 4.65811e-05 8.05043e-05 0.000789811 3.96965e-05 4.98422e-05 0.000789811 4.65811e-05 4.98422e-05 5.99879e-05 0.00213747 0.00138417 0.0020079 0.00121644 0.00138417 -0.000152739 0.00121644 -0.000100627 0.0020079 0.00121644 0.00077451 0.00107956 0.00121644 -0.000100627 0.00107956 -4.85149e-05 0.00148762 0.00130036 0.002041 0.00134464 0.00130036 0.00077451 0.00134464 0.000356094 0.002041 0.00134464 0.00243994 0.00131477 0.00134464 0.000356094 0.00131477 0.000160808 0.00077451 0.00107956 0.000356094 0.000917863 0.00107956 -4.85149e-05 0.000917863 1.74336e-08 0.000356094 0.000917863 0.000160808 5.03998e-05 0.000917863 1.74336e-08 5.03998e-05 4.85498e-05 0.00116103 0.00114011 0.00141591 0.00121339 0.00114011 0.00212332 0.00121339 0.00220755 0.00141591 0.00121339 0.00167078 0.00137667 0.00167078 0.00137667 0.0017359 0.00140697 0.0017359 0.00140697 0.00146489 0.00120107 0.00140697 0.00180206 0.00120107 0.0012624 0.00146489 0.00120107 0.0017359 0.00140697 0.00120107 0.0012624 0.00140697 0.00180206 0.0017359 0.00140697 0.00167078 0.00137667 0.00243994 0.00131477 0.002041 0.00134464 0.00131477 0.000160808 0.00134464 0.000356094 0.002041 0.00134464 0.00148762 0.00130036 0.00134464 0.000356094 0.00130036 0.00077451 0.00167078 0.00137667 0.00141591 0.00121339 0.00141591 0.00121339 0.00116103 0.00114011 0.00121339 0.00220755 0.00114011 0.00212332 0.000160808 5.03998e-05 0.000356094 0.000917863 5.03998e-05 4.85497e-05 0.000917863 1.74197e-08 0.000356094 0.000917863 0.00077451 0.00107956 0.000917863 1.74197e-08 0.00107956 -4.85149e-05 -8.14075e-05 0.000402196 -1.0709e-05 0.000395033 -1.0709e-05 0.000395033 5.99895e-05 0.000416445 5.99895e-05 0.000416445 4.65701e-05 0.000509093 4.65701e-05 0.000509093 0.0002076 0.000548695 0.000509093 0.0018868 0.000548695 0.00132221 0.00123545 0.0010655 0.00122138 0.001137 0.00122138 0.001137 0.00123507 0.0010994 0.00123507 0.0010994 0.00122137 0.001137 0.00122137 0.001137 0.00123545 0.0010655 0.000207547 0.000548723 4.65811e-05 0.000509087 0.000548723 0.00132221 0.000509087 0.0018868 4.65811e-05 0.000509087 5.99879e-05 0.000416446 0.00077451 0.00107956 0.0020079 0.00121644 0.00107956 -4.85149e-05 0.00121644 -0.000100627 0.0020079 0.00121644 0.00213747 0.00138417 0.00121644 -0.000100627 0.00138417 -0.000152739 5.99879e-05 0.000416446 -1.07098e-05 0.000395034 -1.07098e-05 0.000395034 -8.14075e-05 0.000402196 0.0010655 0.000491237 0.001137 0.000538388 0.000491237 -8.93547e-05 0.000538388 -5.42877e-05 0.001137 0.000538388 0.0010994 0.000538769 0.000538388 -5.42877e-05 0.000538769 -1.92208e-05 0.0012931 0.00123507 0.00194143 0.00127928 0.00123507 0.0010994 0.00127928 0.000601253 0.00194143 0.00127928 0.00243994 0.00131477 0.00127928 0.000601253 0.00131477 0.000160808 0.0010994 0.000538769 0.000601253 0.000316586 0.000538769 -1.92208e-05 0.000316586 1.46645e-05 0.000601253 0.000316586 0.000160808 5.03998e-05 0.000316586 1.46645e-05 5.03998e-05 4.85497e-05 0.00243994 0.00131477 0.00194144 0.00127928 0.00131477 0.000160808 0.00127928 0.000601253 0.00194144 0.00127928 0.00129311 0.00123507 0.00127928 0.000601253 0.00123507 0.0010994 0.000160808 5.03998e-05 0.000601253 0.000316586 5.03998e-05 4.85498e-05 0.000316586 1.46645e-05 0.000601253 0.000316586 0.0010994 0.000538768 0.000316586 1.46645e-05 0.000538768 -1.92207e-05 0.0010994 0.000538768 0.001137 0.000538388 0.000538768 -1.92207e-05 0.000538388 -5.42877e-05 0.001137 0.000538388 0.0010655 0.000491237 0.000538388 -5.42877e-05 0.000491237 -8.93547e-05 0.00212332 0.00177172 0.00220755 0.00180124 0.00177172 0.00206523 0.00180124 0.00203991 0.00220755 0.00180124 0.00225623 0.00180046 0.00180124 0.00203991 0.00180046 0.00202021 0.00206523 0.00135263 0.00203991 0.00133898 0.00135263 -0.000147295 0.00133898 -0.000150282 0.00203991 0.00133898 0.00202021 0.00132698 0.00133898 -0.000150282 0.00132698 -0.000153269 0.00225623 0.00180046 0.00180206 0.00160869 0.00180046 0.00202021 0.00160869 0.00209129 0.00180206 0.00160869 0.0012624 0.001349 0.00160869 0.00209129 0.001349 0.00213747 0.00202021 0.00132698 0.00209129 0.00136662 0.00132698 -0.000153269 0.00136662 -0.000153004 0.00209129 0.00136662 0.00213747 0.00138417 0.00136662 -0.000153004 0.00138417 -0.000152739 0.0012624 0.001349 0.00180206 0.00160869 0.001349 0.00213747 0.00160869 0.00209129 0.00180206 0.00160869 0.00225623 0.00180046 0.00160869 0.00209129 0.00180046 0.00202021 0.00213747 0.00138417 0.00209129 0.00136662 0.00138417 -0.000152739 0.00136662 -0.000153004 0.00209129 0.00136662 0.00202021 0.00132698 0.00136662 -0.000153004 0.00132698 -0.000153269 0.00225623 0.00180046 0.00220755 0.00180124 0.00180046 0.00202021 0.00180124 0.00203991 0.00220755 0.00180124 0.00212332 0.00177172 0.00180124 0.00203991 0.00177172 0.00206523 0.00202021 0.00132698 0.00203991 0.00133898 0.00132698 -0.000153269 0.00133898 -0.000150282 0.00203991 0.00133898 0.00206523 0.00135263 0.00133898 -0.000150282 0.00135263 -0.000147295 0.0021881 0.00129098 0.00228932 0.0012997 0.00129098 0.000370217 0.0012997 0.000284543 0.00228932 0.0012997 0.00233892 0.00130502 0.0012997 0.000284543 0.00130502 0.000240839 0.000370217 0.000241285 0.000284543 0.000177765 0.000241285 0.000124559 0.000177765 7.09808e-05 0.000284543 0.000177765 0.000240839 0.00012551 0.000177765 7.09808e-05 0.00012551 1.74022e-05 0.00233892 0.00130502 0.0018868 0.00127109 0.00130502 0.000240839 0.00127109 0.0006482 0.0018868 0.00127109 0.00132221 0.00123545 0.00127109 0.0006482 0.00123545 0.0010655 0.000240839 0.00012551 0.0006482 0.000301832 0.00012551 1.74022e-05 0.000301832 -3.59762e-05 0.0006482 0.000301832 0.0010655 0.000491237 0.000301832 -3.59762e-05 0.000491237 -8.93547e-05 0.00132221 0.00123545 0.0018868 0.00127109 0.00123545 0.0010655 0.00127109 0.0006482 0.0018868 0.00127109 0.00233892 0.00130502 0.00127109 0.0006482 0.00130502 0.000240839 0.0010655 0.000491237 0.0006482 0.000301832 0.000491237 -8.93547e-05 0.000301832 -3.59762e-05 0.0006482 0.000301832 0.000240839 0.00012551 0.000301832 -3.59762e-05 0.00012551 1.74022e-05 0.00233892 0.00130502 0.00228932 0.0012997 0.00130502 0.000240839 0.0012997 0.000284543 0.00228932 0.0012997 0.0021881 0.00129098 0.0012997 0.000284543 0.00129098 0.000370217 0.000240839 0.00012551 0.000284543 0.000177765 0.00012551 1.74022e-05 0.000177765 7.09808e-05 0.000284543 0.000177765 0.000370217 0.000241285 0.000177765 7.09808e-05 0.000241285 0.000124559 0.000582388 0.001061 0.000555459 0.00101689 0.001061 0.00134995 0.00101689 0.00124684 0.000555459 0.00101689 0.000528464 0.000964495 0.00101689 0.00124684 0.000964495 0.00114373 0.000894582 0.00146779 0.000851075 0.00159318 0.00146779 0.002041 0.00159318 0.00224047 0.000851075 0.00159318 0.000807569 0.00161366 0.00159318 0.00224047 0.00161366 0.00243994 0.000528464 0.000964495 0.000521858 0.000905255 0.000964495 0.00114373 0.000905255 0.00102548 0.000521858 0.000905255 0.000511026 0.000845499 0.000905255 0.00102548 0.000845499 0.000907223 0.000807567 0.00161366 0.000851075 0.00159318 0.00161366 0.00243994 0.00159318 0.00224047 0.000851075 0.00159318 0.000894582 0.00146779 0.00159318 0.00224047 0.00146779 0.002041 0.000511026 0.000845499 0.000521858 0.000905255 0.000845499 0.000907228 0.000905255 0.00102548 0.000521858 0.000905255 0.000528464 0.000964495 0.000905255 0.00102548 0.000964495 0.00114373 0.00106736 0.000976706 0.00101632 0.00108647 0.000976706 0.000886053 0.00108647 0.00114121 0.00101632 0.00108647 0.000965273 0.00122645 0.00108647 0.00114121 0.00122645 0.00148762 0.000528464 0.000964495 0.000555459 0.00101689 0.000964495 0.00114373 0.00101689 0.00124684 0.000555459 0.00101689 0.000582388 0.001061 0.00101689 0.00124684 0.001061 0.00134995 0.000965273 0.00122645 0.00101632 0.00108647 0.00122645 0.00148762 0.00108647 0.00114121 0.00101632 0.00108647 0.00106736 0.000976706 0.00108647 0.00114121 0.000976706 0.000886053 0.000710372 0.00110154 0.00064638 0.00109328 0.00110154 0.00149271 0.00109328 0.00140218 0.00064638 0.00109328 0.000582388 0.001061 0.00109328 0.00140218 0.001061 0.00134995 0.000870238 0.00140584 0.000838903 0.00156258 0.00140584 0.00194143 0.00156258 0.00219069 0.000838903 0.00156258 0.000807567 0.00161366 0.00156258 0.00219069 0.00161366 0.00243994 0.000582388 0.001061 0.00064638 0.00109328 0.001061 0.00134995 0.00109328 0.00140218 0.00064638 0.00109328 0.000710372 0.00110154 0.00109328 0.00140218 0.00110154 0.00149271 0.000807569 0.00161366 0.0008389 0.00156258 0.00161366 0.00243994 0.00156258 0.00219069 0.0008389 0.00156258 0.000870232 0.00140583 0.00156258 0.00219069 0.00140583 0.00194144 0.00121339 0.00171047 0.00129503 0.00175831 0.00171047 0.00220755 0.00175831 0.00223189 0.00129503 0.00175831 0.00137667 0.00175867 0.00175831 0.00223189 0.00175867 0.00225623 0.00137667 0.00175867 0.00139182 0.00171074 0.00175867 0.00225623 0.00171074 0.00202914 0.00139182 0.00171074 0.00140697 0.00160451 0.00171074 0.00202914 0.00160451 0.00180206 0.000473965 0.000600764 0.000498259 0.00068199 0.000600764 0.000727562 0.00068199 0.000666586 0.000498259 0.00068199 0.000522553 0.00074455 0.00068199 0.000666586 0.00074455 0.00069229 0.000727562 0.000900572 0.000666586 0.00087885 0.000900572 0.000520633 0.00087885 0.00050264 0.000666586 0.00087885 0.00069229 0.000866288 0.00087885 0.00050264 0.000866288 0.000484648 0.000522553 0.00074455 0.00051679 0.000792856 0.00074455 0.00069229 0.000792856 0.000770602 0.00051679 0.000792856 0.000511026 0.000845499 0.000792856 0.000770602 0.000845499 0.000907228 0.00069229 0.000866288 0.000770602 0.000816068 0.000866288 0.000484648 0.000816068 0.000498968 0.000770602 0.000816068 0.000907228 0.000710258 0.000816068 0.000498968 0.000710258 0.000513289 0.000511026 0.000845499 0.000516792 0.000792857 0.000845499 0.000907223 0.000792857 0.0007706 0.000516792 0.000792857 0.000522558 0.000744567 0.000792857 0.0007706 0.000744567 0.000692299 0.000907223 0.000710256 0.0007706 0.000816065 0.000710256 0.000513289 0.000816065 0.000498973 0.0007706 0.000816065 0.000692299 0.000866301 0.000816065 0.000498973 0.000866301 0.000484657 0.000522558 0.000744567 0.000498278 0.000682174 0.000744567 0.000692299 0.000682174 0.00066692 0.000498278 0.000682174 0.000473998 0.000601158 0.000682174 0.00066692 0.000601158 0.000728319 0.000692299 0.000866301 0.00066692 0.000878936 0.000866301 0.000484657 0.000878936 0.000502676 0.00066692 0.000878936 0.000728319 0.000902993 0.000878936 0.000502676 0.000902993 0.000520696 -4.0308e-06 0.000289178 -9.25634e-07 0.000189615 0.000289178 0.000582388 0.000189615 0.000555459 -9.25634e-07 0.000189615 2.17953e-06 0.000138608 0.000189615 0.000555459 0.000138608 0.000528464 2.17953e-06 0.000138608 -3.4168e-06 0.000164384 0.000138608 0.000528464 0.000164384 0.000521858 -3.4168e-06 0.000164384 -9.01314e-06 0.000251007 0.000164384 0.000521858 0.000251007 0.000511026 -9.01302e-06 0.000251006 -3.4168e-06 0.000164383 0.000251006 0.000511026 0.000164383 0.000521858 -3.4168e-06 0.000164383 2.17941e-06 0.000138608 0.000164383 0.000521858 0.000138608 0.000528464 2.17941e-06 0.000138608 -9.25682e-07 0.000189615 0.000138608 0.000528464 0.000189615 0.000555459 -9.25682e-07 0.000189615 -4.03078e-06 0.000289178 0.000189615 0.000555459 0.000289178 0.000582388 0.00140697 0.00160451 0.00139182 0.00171074 0.00160451 0.00180206 0.00171074 0.00202914 0.00139182 0.00171074 0.00137667 0.00175867 0.00171074 0.00202914 0.00175867 0.00225623 0.00137667 0.00175867 0.00129503 0.00175831 0.00175867 0.00225623 0.00175831 0.00223189 0.00129503 0.00175831 0.00121339 0.00171047 0.00175831 0.00223189 0.00171047 0.00220755 0.0012624 0.0013057 0.00107422 0.00109121 0.0013057 0.001349 0.00109121 0.00127659 0.00107422 0.00109121 0.000886053 0.000995183 0.00109121 0.00127659 0.000995183 0.00111671 0.001349 0.00174323 0.00127659 0.00124617 0.00174323 0.0021374