# vtk DataFile Version 3.0
#This file was generated by the deal.II library on 2023/3/2 at 23:09:40
ASCII
DATASET UNSTRUCTURED_GRID

FIELD FieldData 2
CYCLE 1 1 int
176
TIME 1 1 double
0.352
POINTS 28888 double
1.96157 1.22465e-16 0.390181
1.91388 1.22465e-16 0.580569
1.96629 0.0980171 0.39112
1.91849 0.0980171 0.581967
1.91388 1.22465e-16 0.580569
1.84776 1.22465e-16 0.765367
1.91849 0.0980171 0.581967
1.85221 0.0980171 0.76721
1.96629 0.0980171 0.39112
1.91849 0.0980171 0.581967
1.98042 0.19509 0.393929
1.93227 0.19509 0.586147
1.91849 0.0980171 0.581967
1.85221 0.0980171 0.76721
1.93227 0.19509 0.586147
1.86551 0.19509 0.77272
1.98042 0.19509 0.393929
1.93227 0.19509 0.586147
2.0038 0.290285 0.398581
1.95509 0.290285 0.593069
1.93227 0.19509 0.586147
1.86551 0.19509 0.77272
1.95509 0.290285 0.593069
1.88754 0.290285 0.781845
2.0038 0.290285 0.398581
1.95509 0.290285 0.593069
2.03623 0.382683 0.405031
1.98672 0.382683 0.602666
1.95509 0.290285 0.593069
1.88754 0.290285 0.781845
1.98672 0.382683 0.602666
1.91809 0.382683 0.794497
1.84776 1.22465e-16 0.765367
1.76384 1.22465e-16 0.942793
1.85221 0.0980171 0.76721
1.76809 0.0980171 0.945063
1.76384 1.22465e-16 0.942793
1.66294 1.22465e-16 1.11114
1.76809 0.0980171 0.945063
1.66694 0.0980171 1.11382
1.85221 0.0980171 0.76721
1.76809 0.0980171 0.945063
1.86551 0.19509 0.77272
1.78079 0.19509 0.951851
1.76809 0.0980171 0.945063
1.66694 0.0980171 1.11382
1.78079 0.19509 0.951851
1.67892 0.19509 1.12182
1.66294 1.22465e-16 1.11114
1.54602 1.22465e-16 1.26879
1.66694 0.0980171 1.11382
1.54974 0.0980171 1.27184
1.54602 1.22465e-16 1.26879
1.41421 1.22465e-16 1.41421
1.54974 0.0980171 1.27184
1.41762 0.0980171 1.41762
1.66694 0.0980171 1.11382
1.54974 0.0980171 1.27184
1.67892 0.19509 1.12182
1.56087 0.19509 1.28098
1.54974 0.0980171 1.27184
1.41762 0.0980171 1.41762
1.56087 0.19509 1.28098
1.4278 0.19509 1.4278
1.86551 0.19509 0.77272
1.78079 0.19509 0.951851
1.88754 0.290285 0.781845
1.80182 0.290285 0.963092
1.78079 0.19509 0.951851
1.67892 0.19509 1.12182
1.80182 0.290285 0.963092
1.69874 0.290285 1.13506
1.88754 0.290285 0.781845
1.80182 0.290285 0.963092
1.91809 0.382683 0.794497
1.83097 0.382683 0.978676
1.80182 0.290285 0.963092
1.69874 0.290285 1.13506
1.83097 0.382683 0.978676
1.72623 0.382683 1.15343
1.67892 0.19509 1.12182
1.56087 0.19509 1.28098
1.69874 0.290285 1.13506
1.57931 0.290285 1.2961
1.56087 0.19509 1.28098
1.4278 0.19509 1.4278
1.57931 0.290285 1.2961
1.44466 0.290285 1.44466
1.69874 0.290285 1.13506
1.57931 0.290285 1.2961
1.72623 0.382683 1.15343
1.60486 0.382683 1.31708
1.57931 0.290285 1.2961
1.44466 0.290285 1.44466
1.60486 0.382683 1.31708
1.46804 0.382683 1.46804
2.03623 0.382683 0.405031
1.98672 0.382683 0.602666
2.07738 0.471397 0.413217
2.02687 0.471397 0.614846
1.98672 0.382683 0.602666
1.91809 0.382683 0.794497
2.02687 0.471397 0.614846
1.95685 0.471397 0.810554
2.07738 0.471397 0.413217
2.02687 0.471397 0.614846
2.12686 0.55557 0.423059
2.07515 0.55557 0.629491
2.02687 0.471397 0.614846
1.95685 0.471397 0.810554
2.07515 0.55557 0.629491
2.00346 0.55557 0.829861
2.12686 0.55557 0.423059
2.07515 0.55557 0.629491
2.1842 0.634393 0.434464
2.1311 0.634393 0.646461
2.07515 0.55557 0.629491
2.00346 0.55557 0.829861
2.1311 0.634393 0.646461
2.05747 0.634393 0.852232
2.1842 0.634393 0.434464
2.1311 0.634393 0.646461
2.24884 0.707107 0.447321
2.19416 0.707107 0.665592
2.1311 0.634393 0.646461
2.05747 0.634393 0.852232
2.19416 0.707107 0.665592
2.11836 0.707107 0.877452
1.91809 0.382683 0.794497
1.83097 0.382683 0.978676
1.95685 0.471397 0.810554
1.86798 0.471397 0.998455
1.83097 0.382683 0.978676
1.72623 0.382683 1.15343
1.86798 0.471397 0.998455
1.76112 0.471397 1.17674
1.95685 0.471397 0.810554
1.86798 0.471397 0.998455
2.00346 0.55557 0.829861
1.91247 0.55557 1.02224
1.86798 0.471397 0.998455
1.76112 0.471397 1.17674
1.91247 0.55557 1.02224
1.80307 0.55557 1.20477
1.72623 0.382683 1.15343
1.60486 0.382683 1.31708
1.76112 0.471397 1.17674
1.6373 0.471397 1.34369
1.60486 0.382683 1.31708
1.46804 0.382683 1.46804
1.6373 0.471397 1.34369
1.49771 0.471397 1.49771
1.76112 0.471397 1.17674
1.6373 0.471397 1.34369
1.80307 0.55557 1.20477
1.6763 0.55557 1.3757
1.6373 0.471397 1.34369
1.49771 0.471397 1.49771
1.6763 0.55557 1.3757
1.53338 0.55557 1.53338
2.00346 0.55557 0.829861
1.91247 0.55557 1.02224
2.05747 0.634393 0.852232
1.96403 0.634393 1.0498
1.91247 0.55557 1.02224
1.80307 0.55557 1.20477
1.96403 0.634393 1.0498
1.85167 0.634393 1.23725
2.05747 0.634393 0.852232
1.96403 0.634393 1.0498
2.11836 0.707107 0.877452
2.02215 0.707107 1.08086
1.96403 0.634393 1.0498
1.85167 0.634393 1.23725
2.02215 0.707107 1.08086
1.90647 0.707107 1.27386
1.80307 0.55557 1.20477
1.6763 0.55557 1.3757
1.85167 0.634393 1.23725
1.72149 0.634393 1.41279
1.6763 0.55557 1.3757
1.53338 0.55557 1.53338
1.72149 0.634393 1.41279
1.57472 0.634393 1.57472
1.85167 0.634393 1.23725
1.72149 0.634393 1.41279
1.90647 0.707107 1.27386
1.77243 0.707107 1.4546
1.72149 0.634393 1.41279
1.57472 0.634393 1.57472
1.77243 0.707107 1.4546
1.62132 0.707107 1.62132
1.41421 1.22465e-16 1.41421
1.26879 1.22465e-16 1.54602
1.41762 0.0980171 1.41762
1.27184 0.0980171 1.54974
1.26879 1.22465e-16 1.54602
1.11114 1.22465e-16 1.66294
1.27184 0.0980171 1.54974
1.11382 0.0980171 1.66694
1.41762 0.0980171 1.41762
1.27184 0.0980171 1.54974
1.4278 0.19509 1.4278
1.28098 0.19509 1.56087
1.27184 0.0980171 1.54974
1.11382 0.0980171 1.66694
1.28098 0.19509 1.56087
1.12182 0.19509 1.67892
1.11114 1.22465e-16 1.66294
0.942793 1.22465e-16 1.76384
1.11382 0.0980171 1.66694
0.945063 0.0980171 1.76809
0.942793 1.22465e-16 1.76384
0.765367 1.22465e-16 1.84776
0.945063 0.0980171 1.76809
0.76721 0.0980171 1.85221
1.11382 0.0980171 1.66694
0.945063 0.0980171 1.76809
1.12182 0.19509 1.67892
0.951851 0.19509 1.78079
0.945063 0.0980171 1.76809
0.76721 0.0980171 1.85221
0.951851 0.19509 1.78079
0.77272 0.19509 1.86551
1.4278 0.19509 1.4278
1.28098 0.19509 1.56087
1.44466 0.290285 1.44466
1.2961 0.290285 1.57931
1.28098 0.19509 1.56087
1.12182 0.19509 1.67892
1.2961 0.290285 1.57931
1.13506 0.290285 1.69874
1.44466 0.290285 1.44466
1.2961 0.290285 1.57931
1.46804 0.382683 1.46804
1.31708 0.382683 1.60486
1.2961 0.290285 1.57931
1.13506 0.290285 1.69874
1.31708 0.382683 1.60486
1.15343 0.382683 1.72623
1.12182 0.19509 1.67892
0.951851 0.19509 1.78079
1.13506 0.290285 1.69874
0.963092 0.290285 1.80182
0.951851 0.19509 1.78079
0.77272 0.19509 1.86551
0.963092 0.290285 1.80182
0.781845 0.290285 1.88754
1.13506 0.290285 1.69874
0.963092 0.290285 1.80182
1.15343 0.382683 1.72623
0.978676 0.382683 1.83097
0.963092 0.290285 1.80182
0.781845 0.290285 1.88754
0.978676 0.382683 1.83097
0.794497 0.382683 1.91809
0.765367 1.22465e-16 1.84776
0.580569 1.22465e-16 1.91388
0.76721 0.0980171 1.85221
0.581967 0.0980171 1.91849
0.580569 1.22465e-16 1.91388
0.390181 1.22465e-16 1.96157
0.581967 0.0980171 1.91849
0.39112 0.0980171 1.96629
0.76721 0.0980171 1.85221
0.581967 0.0980171 1.91849
0.77272 0.19509 1.86551
0.586147 0.19509 1.93227
0.581967 0.0980171 1.91849
0.39112 0.0980171 1.96629
0.586147 0.19509 1.93227
0.393929 0.19509 1.98042
0.390181 1.22465e-16 1.96157
0.196034 1.22465e-16 1.99037
0.39112 0.0980171 1.96629
0.196506 0.0980171 1.99516
0.196034 1.22465e-16 1.99037
0 0 2
0.196506 0.0980171 1.99516
1.2276e-16 0.0980171 2.00482
0.39112 0.0980171 1.96629
0.196506 0.0980171 1.99516
0.393929 0.19509 1.98042
0.197918 0.19509 2.00949
0.196506 0.0980171 1.99516
1.2276e-16 0.0980171 2.00482
0.197918 0.19509 2.00949
1.23641e-16 0.19509 2.01921
0.77272 0.19509 1.86551
0.586147 0.19509 1.93227
0.781845 0.290285 1.88754
0.593069 0.290285 1.95509
0.586147 0.19509 1.93227
0.393929 0.19509 1.98042
0.593069 0.290285 1.95509
0.398581 0.290285 2.0038
0.781845 0.290285 1.88754
0.593069 0.290285 1.95509
0.794497 0.382683 1.91809
0.602666 0.382683 1.98672
0.593069 0.290285 1.95509
0.398581 0.290285 2.0038
0.602666 0.382683 1.98672
0.405031 0.382683 2.03623
0.393929 0.19509 1.98042
0.197918 0.19509 2.00949
0.398581 0.290285 2.0038
0.200255 0.290285 2.03322
0.197918 0.19509 2.00949
1.23641e-16 0.19509 2.01921
0.200255 0.290285 2.03322
1.25101e-16 0.290285 2.04306
0.398581 0.290285 2.0038
0.200255 0.290285 2.03322
0.405031 0.382683 2.03623
0.203495 0.382683 2.06612
0.200255 0.290285 2.03322
1.25101e-16 0.290285 2.04306
0.203495 0.382683 2.06612
1.27126e-16 0.382683 2.07612
1.46804 0.382683 1.46804
1.31708 0.382683 1.60486
1.49771 0.471397 1.49771
1.34369 0.471397 1.6373
1.31708 0.382683 1.60486
1.15343 0.382683 1.72623
1.34369 0.471397 1.6373
1.17674 0.471397 1.76112
1.49771 0.471397 1.49771
1.34369 0.471397 1.6373
1.53338 0.55557 1.53338
1.3757 0.55557 1.6763
1.34369 0.471397 1.6373
1.17674 0.471397 1.76112
1.3757 0.55557 1.6763
1.20477 0.55557 1.80307
1.15343 0.382683 1.72623
0.978676 0.382683 1.83097
1.17674 0.471397 1.76112
0.998455 0.471397 1.86798
0.978676 0.382683 1.83097
0.794497 0.382683 1.91809
0.998455 0.471397 1.86798
0.810554 0.471397 1.95685
1.17674 0.471397 1.76112
0.998455 0.471397 1.86798
1.20477 0.55557 1.80307
1.02224 0.55557 1.91247
0.998455 0.471397 1.86798
0.810554 0.471397 1.95685
1.02224 0.55557 1.91247
0.829861 0.55557 2.00346
1.53338 0.55557 1.53338
1.3757 0.55557 1.6763
1.57472 0.634393 1.57472
1.41279 0.634393 1.72149
1.3757 0.55557 1.6763
1.20477 0.55557 1.80307
1.41279 0.634393 1.72149
1.23725 0.634393 1.85167
1.57472 0.634393 1.57472
1.41279 0.634393 1.72149
1.62132 0.707107 1.62132
1.4546 0.707107 1.77243
1.41279 0.634393 1.72149
1.23725 0.634393 1.85167
1.4546 0.707107 1.77243
1.27386 0.707107 1.90647
1.20477 0.55557 1.80307
1.02224 0.55557 1.91247
1.23725 0.634393 1.85167
1.0498 0.634393 1.96403
1.02224 0.55557 1.91247
0.829861 0.55557 2.00346
1.0498 0.634393 1.96403
0.852232 0.634393 2.05747
1.23725 0.634393 1.85167
1.0498 0.634393 1.96403
1.27386 0.707107 1.90647
1.08086 0.707107 2.02215
1.0498 0.634393 1.96403
0.852232 0.634393 2.05747
1.08086 0.707107 2.02215
0.877452 0.707107 2.11836
0.794497 0.382683 1.91809
[...]
POINT_DATA 28888
SCALARS U double 1
LOOKUP_TABLE default
0.0191207 0.0221797 0.0191111 0.0221764 0.0221797 0.023894 0.0221764 0.0238962 0.0191111 0.0221764 0.0190855 0.022166 0.0221764 0.0238962 0.022166 0.0239014 0.0190855 0.022166 0.019061 0.0221525 0.022166 0.0239014 0.0221525 0.0239107 0.019061 0.0221525 0.019044 0.022139 0.0221525 0.0239107 0.022139 0.0239231 0.023894 0.0249209 0.0238962 0.0249072 0.0249209 0.0249071 0.0249072 0.0248626 0.0238962 0.0249072 0.0239014 0.0248643 0.0249072 0.0248626 0.0248643 0.0247242 0.0249071 0.0247596 0.0248626 0.0246995 0.0247596 0.0248693 0.0246995 0.0248251 0.0248626 0.0246995 0.0247242 0.0245117 0.0246995 0.0248251 0.0245117 0.0246855 0.0239014 0.0248643 0.0239107 0.0247927 0.0248643 0.0247242 0.0247927 0.0244859 0.0239107 0.0247927 0.0239231 0.024694 0.0247927 0.0244859 0.024694 0.0241465 0.0247242 0.0245117 0.0244859 0.0241827 0.0245117 0.0246855 0.0241827 0.0244374 0.0244859 0.0241827 0.0241465 0.0237045 0.0241827 0.0244374 0.0237045 0.024072 0.019044 0.022139 0.0190408 0.0221145 0.022139 0.0239231 0.0221145 0.0239318 0.0190408 0.0221145 0.0190377 0.0220625 0.0221145 0.0239318 0.0220625 0.0239121 0.0190377 0.0220625 0.0190195 0.0219488 0.0220625 0.0239121 0.0219488 0.0238185 0.0190195 0.0219488 0.0189516 0.0217265 0.0219488 0.0238185 0.0217265 0.0235879 0.0239231 0.024694 0.0239318 0.0245685 0.024694 0.0241465 0.0245685 0.0237171 0.0239318 0.0245685 0.0239121 0.0244095 0.0245685 0.0237171 0.0244095 0.0232191 0.0241465 0.0237045 0.0237171 0.023089 0.0237045 0.024072 0.023089 0.0235982 0.0237171 0.023089 0.0232191 0.0223724 0.023089 0.0235982 0.0223724 0.0230479 0.0239121 0.0244095 0.0238185 0.0241937 0.0244095 0.0232191 0.0241937 0.0226751 0.0238185 0.0241937 0.0235879 0.0238776 0.0241937 0.0226751 0.0238776 0.0220967 0.0232191 0.0223724 0.0226751 0.021608 0.0223724 0.0230479 0.021608 0.0224711 0.0226751 0.021608 0.0220967 0.0208492 0.021608 0.0224711 0.0208492 0.0219206 0.0248693 0.0247892 0.0248251 0.0247688 0.0247892 0.0246043 0.0247688 0.0245927 0.0248251 0.0247688 0.0246855 0.0247041 0.0247688 0.0245927 0.0247041 0.0245565 0.0246043 0.025306 0.0245927 0.025292 0.025306 0.0271855 0.025292 0.0271606 0.0245927 0.025292 0.0245565 0.0252485 0.025292 0.0271606 0.0252485 0.027081 0.0246855 0.0247041 0.0244374 0.0245884 0.0247041 0.0245565 0.0245884 0.0244937 0.0244374 0.0245884 0.024072 0.0244179 0.0245884 0.0244937 0.0244179 0.0244023 0.0245565 0.0252485 0.0244937 0.025173 0.0252485 0.027081 0.025173 0.0269387 0.0244937 0.025173 0.0244023 0.0250619 0.025173 0.0269387 0.0250619 0.0267257 0.0271855 0.0292519 0.0271606 0.0292058 0.0292519 0.0308175 0.0292058 0.0307654 0.0271606 0.0292058 0.027081 0.0290566 0.0292058 0.0307654 0.0290566 0.0305909 0.0308175 0.0315597 0.0307654 0.0315357 0.0315597 0.0306862 0.0315357 0.0306879 0.0307654 0.0315357 0.0305909 0.0314437 0.0315357 0.0306879 0.0314437 0.0306803 0.027081 0.0290566 0.0269387 0.0287824 0.0290566 0.0305909 0.0287824 0.0302528 0.0269387 0.0287824 0.0267257 0.0283668 0.0287824 0.0302528 0.0283668 0.0297097 0.0305909 0.0314437 0.0302528 0.0312309 0.0314437 0.0306803 0.0312309 0.0306221 0.0302528 0.0312309 0.0297097 0.0308203 0.0312309 0.0306221 0.0308203 0.0304315 0.024072 0.0244179 0.0235982 0.0241978 0.0244179 0.0244023 0.0241978 0.0242826 0.0235982 0.0241978 0.0230479 0.0239461 0.0241978 0.0242826 0.0239461 0.0241381 0.0244023 0.0250619 0.0242826 0.0249096 0.0250619 0.0267257 0.0249096 0.0264364 0.0242826 0.0249096 0.0241381 0.0247104 0.0249096 0.0264364 0.0247104 0.0260672 0.0230479 0.0239461 0.0224711 0.0236902 0.0239461 0.0241381 0.0236902 0.0239763 0.0224711 0.0236902 0.0219206 0.0234581 0.0236902 0.0239763 0.0234581 0.023806 0.0241381 0.0247104 0.0239763 0.0244619 0.0247104 0.0260672 0.0244619 0.0256176 0.0239763 0.0244619 0.023806 0.0241698 0.0244619 0.0256176 0.0241698 0.0250981 0.0267257 0.0283668 0.0264364 0.0278118 0.0283668 0.0297097 0.0278118 0.0289453 0.0264364 0.0278118 0.0260672 0.0271396 0.0278118 0.0289453 0.0271396 0.0279843 0.0297097 0.0308203 0.0289453 0.0301265 0.0308203 0.0304315 0.0301265 0.0299789 0.0289453 0.0301265 0.0279843 0.0290834 0.0301265 0.0299789 0.0290834 0.0291106 0.0260672 0.0271396 0.0256176 0.026387 0.0271396 0.0279843 0.026387 0.0268953 0.0256176 0.026387 0.0250981 0.0255986 0.026387 0.0268953 0.0255986 0.0257818 0.0279843 0.0290834 0.0268953 0.0276847 0.0290834 0.0291106 0.0276847 0.0277152 0.0268953 0.0276847 0.0257818 0.0260224 0.0276847 0.0277152 0.0260224 0.0258127 0.0189516 0.0217265 0.0187902 0.021347 0.0217265 0.0235879 0.021347 0.0231537 0.0187902 0.021347 0.0184972 0.0207759 0.021347 0.0231537 0.0207759 0.0224709 0.0184972 0.0207759 0.0180297 0.0200143 0.0207759 0.0224709 0.0200143 0.0215396 0.0180297 0.0200143 0.0174832 0.0190738 0.0200143 0.0215396 0.0190738 0.0204256 0.0235879 0.0238776 0.0231537 0.0234055 0.0238776 0.0220967 0.0234055 0.021479 0.0231537 0.0234055 0.0224709 0.0227311 0.0234055 0.021479 0.0227311 0.0208061 0.0220967 0.0208492 0.021479 0.020133 0.0208492 0.0219206 0.020133 0.0214352 0.021479 0.020133 0.0208061 0.0194727 0.020133 0.0214352 0.0194727 0.0210295 0.0224709 0.0227311 0.0215396 0.0218443 0.0227311 0.0208061 0.0218443 0.0200677 0.0215396 0.0218443 0.0204256 0.0207864 0.0218443 0.0200677 0.0207864 0.019276 0.0208061 0.0194727 0.0200677 0.0188631 0.0194727 0.0210295 0.0188631 0.0206922 0.0200677 0.0188631 0.019276 0.0182921 0.0188631 0.0206922 0.0182921 0.0203928 0.0174832 0.0190738 0.016837 0.0180339 0.0190738 0.0204256 0.0180339 0.0192371 0.016837 0.0180339 0.0159906 0.0170195 0.0180339 0.0192371 0.0170195 0.0180961 0.0159906 0.0170195 0.0151407 0.0160828 0.0170195 0.0180961 0.0160828 0.0171242 0.0151407 0.0160828 0.0143361 0.0152942 0.0160828 0.0171242 0.0152942 0.0163851 0.0204256 0.0207864 0.0192371 0.0196515 0.0207864 0.019276 0.0196515 0.0184703 0.0192371 0.0196515 0.0180961 0.0185598 0.0196515 0.0184703 0.0185598 0.0177069 0.019276 0.0182921 0.0184703 0.0177523 0.0182921 0.0203928 0.0177523 0.0200892 0.0184703 0.0177523 0.0177069 0.0172419 0.0177523 0.0200892 0.0172419 0.0197351 0.0180961 0.0185598 0.0171242 0.0176156 0.0185598 0.0177069 0.0176156 0.0170399 0.0171242 0.0176156 0.0163851 0.0168821 0.0176156 0.0170399 0.0168821 0.0164989 0.0177069 0.0172419 0.0170399 0.0167585 0.0172419 0.0197351 0.0167585 0.0192845 0.0170399 0.0167585 0.0164989 0.01629 0.0167585 0.0192845 0.01629 0.0186979 0.0219206 0.0234581 0.0214352 0.0232686 0.0234581 0.023806 0.0232686 0.0236329 0.0214352 0.0232686 0.0210295 0.0231233 0.0232686 0.0236329 0.0231233 0.0234509 0.023806 0.0241698 0.0236329 0.023848 0.0241698 0.0250981 0.023848 0.0245364 0.0236329 0.023848 0.0234509 0.0235066 0.023848 0.0245364 0.0235066 0.0239717 0.0210295 0.0231233 0.0206922 0.0230029 0.0231233 0.0234509 0.0230029 0.0232339 0.0206922 0.0230029 0.0203928 0.0228666 0.0230029 0.0232339 0.0228666 0.0229325 0.0234509 0.0235066 0.0232339 0.0231335 0.0235066 0.0239717 0.0231335 0.0234335 0.0232339 0.0231335 0.0229325 0.0226813 0.0231335 0.0234335 0.0226813 0.0229185 0.0250981 0.0255986 0.0245364 0.0248251 0.0255986 0.0257818 0.0248251 0.024762 0.0245364 0.0248251 0.0239717 0.0241171 0.0248251 0.024762 0.0241171 0.0239381 0.0257818 0.0260224 0.024762 0.024292 0.0260224 0.0258127 0.024292 0.0236022 0.024762 0.024292 0.0239381 0.0227375 0.024292 0.0236022 0.0227375 0.0214102 0.0239717 0.0241171 0.0234335 0.023512 0.0241171 0.0239381 0.023512 0.0233634 0.0234335 0.023512 0.0229185 0.0230163 0.023512 0.0233634 0.0230163 0.0230222 0.0239381 0.0227375 0.0233634 0.0215544 0.0227375 0.0214102 0.0215544 0.019551 0.0233634 0.0215544 0.0230222 0.0208078 0.0215544 0.019551 0.0208078 0.0181899 0.0203928 0.0228666 0.0200892 0.0226561 0.0228666 0.0229325 0.0226561 0.0224826 0.0200892 0.0226561 0.0197351 0.0223049 0.0226561 0.0224826 0.0223049 0.0218276 0.0229325 0.0226813 0.0224826 0.0220756 0.0226813 0.0229185 0.0220756 0.022385 0.0224826 0.0220756 0.0218276 0.0212471 0.0220756 0.022385 0.0212471 0.0217713 0.0197351 0.0223049 0.0192845 0.0217555 0.0223049 0.0218276 0.0217555 0.0209476 0.0192845 0.0217555 0.0186979 0.0209807 0.0217555 0.0209476 0.0209807 0.0198808 0.0218276 0.0212471 0.0209476 0.0201708 0.0212471 0.0217713 0.0201708 0.0210262 0.0209476 0.0201708 0.0198808 0.0188862 0.0201708 0.0210262 0.0188862 0.0201275 0.0229185 0.0230163 0.022385 0.0225973 0.0230163 0.0230222 0.0225973 0.0228359 0.022385 0.0225973 0.0217713 0.0221916 0.0225973 0.0228359 0.0221916 0.0226917 0.0230222 0.0208078 0.0228359 0.0204217 0.0208078 0.0181899 0.0204217 0.0173026 0.0228359 0.0204217 0.0226917 0.020239 0.0204217 0.0173026 0.020239 0.0167422 0.0217713 0.0221916 0.0210262 0.0217297 0.0221916 0.0226917 0.0217297 0.0224855 0.0210262 0.0217297 0.0201275 0.0211653 0.0217297 0.0224855 0.0211653 0.0221609 0.0226917 0.020239 0.0224855 0.020107 0.020239 0.0167422 0.020107 0.0163476 0.0224855 0.020107 0.0221609 0.0199344 0.020107 0.0163476 0.0199344 0.016015 0.0143246 0.0152851 0.0151282 0.0160724 0.0152851 0.0163811 0.0160724 0.0171183 0.0151282 0.0160724 0.0159771 0.0170078 0.0160724 0.0171183 0.0170078 0.0180883 0.0159771 0.0170078 0.0168227 0.0180212 0.0170078 0.0180883 0.0180212 0.0192276 0.0168227 0.0180212 0.0174683 0.0190602 0.0180212 0.0192276 0.0190602 0.0204148 0.0163811 0.0168831 0.0171183 0.0176143 0.0168831 0.0165018 0.0176143 0.0170408 0.0171183 0.0176143 0.0180883 0.0185563 0.0176143 0.0170408 0.0185563 0.0177056 0.0165018 0.0162915 0.0170408 0.0167587 0.0162915 0.0186965 0.0167587 0.0192824 0.0170408 0.0167587 0.0177056 0.0172406 0.0167587 0.0192824 0.0172406 0.0197323 0.0180883 0.0185563 0.0192276 0.0196458 0.0185563 0.0177056 0.0196458 0.0184671 0.0192276 0.0196458 0.0204148 0.020779 0.0196458 0.0184671 0.020779 0.0192711 0.0177056 0.0172406 0.0184671 0.0177497 0.0172406 0.0197323 0.0177497 0.0200858 0.0184671 0.0177497 0.0192711 0.0182884 0.0177497 0.0200858 0.0182884 0.0203888 0.0174683 0.0190602 0.0180145 0.0200001 0.0190602 0.0204148 0.0200001 0.0215278 0.0180145 0.0200001 0.018482 0.0207615 0.0200001 0.0215278 0.0207615 0.0224585 0.018482 0.0207615 0.0187753 0.0213327 0.0207615 0.0224585 0.0213327 0.0231412 0.0187753 0.0213327 0.0189373 0.0217127 0.0213327 0.0231412 0.0217127 0.0235757 0.0204148 0.020779 0.0215278 0.0218355 0.020779 0.0192711 0.0218355 0.0200615 0.0215278 0.0218355 0.0224585 0.0227215 0.0218355 0.0200615 0.0227215 0.0207989 0.0192711 0.0182884 0.0200615 0.0188584 0.0182884 0.0203888 0.0188584 0.0206879 0.0200615 0.0188584 0.0207989 0.0194674 0.0188584 0.0206879 0.0194674 0.0210249 0.0224585 0.0227215 0.0231412 0.0233955 0.0227215 0.0207989 0.0233955 0.0214714 0.0231412 0.0233955 0.0235757 0.0238675 0.0233955 0.0214714 0.0238675 0.022089 0.0207989 0.0194674 0.0214714 0.0201274 0.0194674 0.0210249 0.0201274 0.0214305 0.0214714 0.0201274 0.022089 0.0208435 0.0201274 0.0214305 0.0208435 0.021916 0.0186965 0.0209747 0.0192824 0.0217492 0.0209747 0.0198635 0.0217492 0.0209305 0.0192824 0.0217492 0.0197323 0.0222984 0.0217492 0.0209305 0.0222984 0.0218111 0.0198635 0.0188449 0.0209305 0.0201315 0.0188449 0.0200484 0.0201315 0.0209526 0.0209305 0.0201315 0.0218111 0.0212106 0.0201315 0.0209526 0.0212106 0.0217044 0.0197323 0.0222984 0.0200858 0.0226495 0.0222984 0.0218111 0.0226495 0.0224671 0.0200858 0.0226495 0.0203888 0.02286 0.0226495 0.0224671 0.02286 0.0229183 0.0218111 0.0212106 0.0224671 0.0220425 0.0212106 0.0217044 0.0220425 0.0223258 0.0224671 0.0220425 0.0229183 0.0226521 0.0220425 0.0223258 0.0226521 0.0228675 0.0200484 0.0210428 0.0209526 0.0216171 0.0210428 0.0220041 0.0216171 0.0223426 0.0209526 0.0216171 0.0217044 0.0220908 0.0216171 0.0223426 0.0220908 0.022565 0.0220041 0.019767 0.0223426 0.019955 0.019767 0.0158661 0.019955 0.0162121 0.0223426 0.019955 0.022565 0.0201049 0.019955 0.0162121 0.0201049 0.0166226 0.0217044 0.0220908 0.0223258 0.0225095 0.0220908 0.022565 0.0225095 0.0227264 0.0223258 0.0225095 0.0228675 0.0229417 0.0225095 0.0227264 0.0229417 0.0229303 0.022565 0.0201049 0.0227264 0.0203065 0.0201049 0.0166226 0.0203065 0.0172 0.0227264 0.0203065 0.0229303 0.0207117 0.0203065 0.0172 0.0207117 0.0181045 0.0203888 0.02286 0.0206879 0.0229965 0.02286 0.0229183 0.0229965 0.0232211 0.0206879 0.0229965 0.0210249 0.0231173 0.0229965 0.0232211 0.0231173 0.0234398 0.0229183 0.0226521 0.0232211 0.0231084 0.0226521 0.0228675 0.0231084 0.0233906 0.0232211 0.0231084 0.0234398 0.0234855 0.0231084 0.0233906 0.0234855 0.0239366 0.0210249 0.0231173 0.0214305 0.023263 0.0231173 0.0234398 0.023263 0.0236234 0.0214305 0.023263 0.021916 0.023453 0.023263 0.0236234 0.023453 0.0237981 0.0234398 0.0234855 0.0236234 0.0238308 0.0234855 0.0239366 0.0238308 0.0245085 0.0236234 0.0238308 0.0237981 0.0241561 0.0238308 0.0245085 0.0241561 0.0250764 0.0228675 0.0229417 0.0233906 0.0234503 0.0229417 0.0229303 0.0234503 0.0232882 0.0233906 0.0234503 0.0239366 0.0240675 0.0234503 0.0232882 0.0240675 0.0238783 0.0229303 0.0207117 0.0232882 0.0214763 0.0207117 0.0181045 0.0214763 0.0194819 0.0232882 0.0214763 0.0238783 0.0226759 0.0214763 0.0194819 0.0226759 0.0213559 0.0239366 0.0240675 0.0245085 0.0247862 0.0240675 0.0238783 0.0247862 0.0247157 0.0245085 0.0247862 0.0250764 0.025569 0.0247862 0.0247157 0.025569 0.025747 0.0238783 0.0226759 0.0247157 0.0242447 0.0226759 0.0213559 0.0242447 0.0235607 0.0247157 0.0242447 0.025747 0.0259871 0.0242447 0.0235607 0.0259871 0.0257819 0.0189373 0.0217127 0.0190061 0.0219358 0.0217127 0.0235757 0.0219358 0.023807 0.0190061 0.0219358 0.0190256 0.0220508 0.0219358 0.023807 0.0220508 0.0239016 0.0190256 0.0220508 0.0190302 0.0221043 0.0220508 0.0239016 0.0221043 0.0239225 0.0190302 0.0221043 0.0190353 0.0221304 0.0221043 0.0239225 0.0221304 0.0239154 0.0235757 0.0238675 0.023807 0.0241841 0.0238675 0.022089 0.0241841 0.0226676 0.023807 0.0241841 0.0239016 0.0244007 0.0241841 0.0226676 0.0244007 0.0232122 0.022089 0.0208435 0.0226676 0.0216024 0.0208435 0.021916 0.0216024 0.0224668 0.0226676 0.0216024 0.0232122 0.0223672 0.0216024 0.0224668 0.0223672 0.0230439 0.0239016 0.0244007 0.0239225 0.0245607 0.0244007 0.0232122 0.0245607 0.023711 0.0239225 0.0245607 0.0239154 0.0246875 0.0245607 0.023711 0.0246875 0.0241414 0.0232122 0.0223672 0.023711 0.0230844 0.0223672 0.0230439 0.0230844 0.0235947 0.023711 0.0230844 0.0241414 0.0237006 0.0230844 0.0235947 0.0237006 0.0240691 0.0190353 0.0221304 0.0190542 0.0221459 0.0221304 0.0239154 0.0221459 0.0239048 0.0190542 0.0221459 0.0190809 0.0221614 0.0221459 0.0239048 0.0221614 0.0238974 0.0190809 0.0221614 0.0191087 0.0221741 0.0221614 0.0238974 0.0221741 0.0238941 0.0191087 0.0221741 0.0191207 0.0221797 0.0221741 0.0238941 0.0221797 0.023894 0.0239154 0.0246875 0.0239048 0.0247876 0.0246875 0.0241414 0.0247876 0.0244818 0.0239048 0.0247876 0.0238974 0.0248609 0.0247876 0.0244818 0.0248609 0.0247215 0.0241414 0.0237006 0.0244818 0.0241796 0.0237006 0.0240691 0.0241796 0.0244351 0.0244818 0.0241796 0.0247215 0.0245097 0.0241796 0.0244351 0.0245097 0.024684 0.0238974 0.0248609 0.0238941 0.0249055 0.0248609 0.0247215 0.0249055 0.0248612 0.0238941 0.0249055 0.023894 0.0249209 0.0249055 0.0248612 0.0249209 0.0249071 0.0247215 0.0245097 0.0248612 0.0246984 0.0245097 0.024684 0.0246984 0.0248243 0.0248612 0.0246984 0.0249071 0.0247596 0.0246984 0.0248243 0.0247596 0.0248693 0.021916 0.023453 0.0224668 0.0236857 0.023453 0.0237981 0.0236857 0.0239698 0.0224668 0.0236857 0.0230439 0.0239423 0.0236857 0.0239698 0.0239423 0.0241329 0.0237981 0.0241561 0.0239698 0.0244512 0.0241561 0.0250764 0.0244512 0.0256013 0.0239698 0.0244512 0.0241329 0.0247024 0.0244512 0.0256013 0.0247024 0.0260552 0.0230439 0.0239423 0.0235947 0.0241946 0.0239423 0.0241329 0.0241946 0.0242786 0.0235947 0.0241946 0.0240691 0.0244153 0.0241946 0.0242786 0.0244153 0.0243993 0.0241329 0.0247024 0.0242786 0.0249037 0.0247024 0.0260552 0.0249037 0.0264279 0.0242786 0.0249037 0.0243993 0.0250577 0.0249037 0.0264279 0.0250577 0.0267198 0.0250764 0.025569 0.0256013 0.026365 0.025569 0.025747 0.026365 0.0268698 0.0256013 0.026365 0.0260552 0.0271238 0.026365 0.0268698 0.0271238 0.0279662 0.025747 0.0259871 0.0268698 0.0276591 0.0259871 0.0257819 0.0276591 0.027693 0.0268698 0.0276591 0.0279662 0.0290654 0.0276591 0.027693 0.0290654 0.029095 0.0260552 0.0271238 0.0264279 0.0278007 0.0271238 0.0279662 0.0278007 0.0289328 0.0264279 0.0278007 0.0267198 0.0283593 0.0278007 0.0289328 0.0283593 0.0297014 0.0279662 0.0290654 0.0289328 0.0301141 0.0290654 0.029095 0.0301141 0.0299683 0.0289328 0.0301141 0.0297014 0.0308121 0.0301141 0.0299683 0.0308121 0.0304244 0.0240691 0.0244153 0.0244351 0.0245865 0.0244153 0.0243993 0.0245865 0.0244916 0.0244351 0.0245865 0.024684 0.0247028 0.0245865 0.0244916 0.0247028 0.0245552 0.0243993 0.0250577 0.0244916 0.0251702 0.0250577 0.0267198 0.0251702 0.0269348 0.0244916 0.0251702 0.0245552 0.0252468 0.0251702 0.0269348 0.0252468 0.0270787 0.024684 0.0247028 0.0248243 0.0247682 0.0247028 0.0245552 0.0247682 0.024592 0.0248243 0.0247682 0.0248693 0.0247892 0.0247682 0.024592 0.0247892 0.0246043 0.0245552 0.0252468 0.024592 0.0252912 0.0252468 0.0270787 0.0252912 0.0271595 0.024592 0.0252912 0.0246043 0.025306 0.0252912 0.0271595 0.025306 0.0271855 0.0267198 0.0283593 0.0269348 0.0287776 0.0283593 0.0297014 0.0287776 0.0302475 0.0269348 0.0287776 0.0270787 0.0290537 0.0287776 0.0302475 0.0290537 0.0305878 0.0297014 0.0308121 0.0302475 0.0312257 0.0308121 0.0304244 0.0312257 0.0306177 0.0302475 0.0312257 0.0305878 0.0314407 0.0312257 0.0306177 0.0314407 0.0306777 0.0270787 0.0290537 0.0271595 0.0292045 0.0290537 0.0305878 0.0292045 0.030764 0.0271595 0.0292045 0.0271855 0.0292519 0.0292045 0.030764 0.0292519 0.0308175 0.0305878 0.0314407 0.030764 0.0315343 0.0314407 0.0306777 0.0315343 0.0306868 0.030764 0.0315343 0.0308175 0.0315597 0.0315343 0.0306868 0.0315597 0.0306862 0.0119458 0.0137202 0.0119525 0.0137192 0.0137202 0.0150038 0.0137192 0.0150076 0.0119525 0.0137192 0.0119723 0.0137166 0.0137192 0.0150076 0.0137166 0.0150189 0.0119723 0.0137166 0.0120031 0.013712 0.0137166 0.0150189 0.013712 0.0150378 0.0120031 0.013712 0.0120427 0.0137047 0.013712 0.0150378 0.0137047 0.0150643 0.0150038 0.0144085 0.0150076 0.0144174 0.0144085 0.0123929 0.0144174 0.0124239 0.0150076 0.0144174 0.0150189 0.0144444 0.0144174 0.0124239 0.0144444 0.0125152 0.0123929 0.00709793 0.0124239 0.00717076 0.00709793 0.00571565 0.00717076 0.0057962 0.0124239 0.00717076 0.0125152 0.00738523 0.00717076 0.0057962 0.00738523 0.00603529 0.0150189 0.0144444 0.0150378 0.0144895 0.0144444 0.0125152 0.0144895 0.0126619 0.0150378 0.0144895 0.0150643 0.014554 0.0144895 0.0126619 0.014554 0.0128578 0.0125152 0.00738523 0.0126619 0.00772997 0.00738523 0.00603529 0.00772997 0.00642493 0.0126619 0.00772997 0.0128578 0.00818858 0.00772997 0.00642493 0.00818858 0.00695225 0.0120427 0.0137047 0.012089 0.0136939 0.0137047 0.0150643 0.0136939 0.0150986 0.012089 0.0136939 0.0121414 0.0136786 0.0136939 0.0150986 0.0136786 0.0151401 0.0121414 0.0136786 0.012201 0.0136582 0.0136786 0.0151401 0.0136582 0.0151875 0.012201 0.0136582 0.0122726 0.0136336 0.0136582 0.0151875 0.0136336 0.0152379 0.0150643 0.014554 0.0150986 0.0146397 0.014554 0.0128578 0.0146397 0.0130961 0.0150986 0.0146397 0.0151401 0.0147482 0.0146397 0.0130961 0.0147482 0.0133698 0.0128578 0.00818858 0.0130961 0.00874315 0.00818858 0.00695225 0.00874315 0.00760243 0.0130961 0.00874315 0.0133698 0.00937764 0.00874315 0.00760243 0.00937764 0.00836352 0.0151401 0.0147482 0.0151875 0.014879 0.0147482 0.0133698 0.014879 0.013671 0.0151875 0.014879 0.0152379 0.0150278 0.014879 0.013671 0.0150278 0.01399 0.0133698 0.00937764 0.013671 0.0100793 0.00937764 0.00836352 0.0100793 0.00922956 0.013671 0.0100793 0.01399 0.010837 0.0100793 0.00922956 0.010837 0.0101987 0.00571565 0.0107031 0.0057962 0.0107539 0.0107031 0.0133803 0.0107539 0.0134026 0.0057962 0.0107539 0.00603529 0.0109043 0.0107539 0.0134026 0.0109043 0.0134777 0.0133803 0.00907215 0.0134026 0.0090878 0.00907215 0.00991907 0.0090878 0.00992821 0.0134026 0.0090878 0.0134777 0.009