# vtk DataFile Version 3.0
#This file was generated by the deal.II library on 2023/3/2 at 0:24:55
ASCII
DATASET UNSTRUCTURED_GRID

FIELD FieldData 2
CYCLE 1 1 int
246
TIME 1 1 double
0.492
POINTS 26188 double
2 0 0
1.99037 1.22465e-16 0.196034
2.00482 0.0980171 0
1.99516 0.0980171 0.196506
1.99037 1.22465e-16 0.196034
1.96157 1.22465e-16 0.390181
1.99516 0.0980171 0.196506
1.96629 0.0980171 0.39112
2.00482 0.0980171 0
1.99516 0.0980171 0.196506
2.01921 0.19509 0
2.00949 0.19509 0.197918
1.99516 0.0980171 0.196506
1.96629 0.0980171 0.39112
2.00949 0.19509 0.197918
1.98042 0.19509 0.393929
1.96157 1.22465e-16 0.390181
1.91388 1.22465e-16 0.580569
1.96629 0.0980171 0.39112
1.91849 0.0980171 0.581967
1.91388 1.22465e-16 0.580569
1.84776 1.22465e-16 0.765367
1.91849 0.0980171 0.581967
1.85221 0.0980171 0.76721
1.96629 0.0980171 0.39112
1.91849 0.0980171 0.581967
1.98042 0.19509 0.393929
1.93227 0.19509 0.586147
1.91849 0.0980171 0.581967
1.85221 0.0980171 0.76721
1.93227 0.19509 0.586147
1.86551 0.19509 0.77272
2.01921 0.19509 0
2.00949 0.19509 0.197918
2.04306 0.290285 0
2.03322 0.290285 0.200255
2.00949 0.19509 0.197918
1.98042 0.19509 0.393929
2.03322 0.290285 0.200255
2.0038 0.290285 0.398581
2.04306 0.290285 0
2.03322 0.290285 0.200255
2.07612 0.382683 0
2.06612 0.382683 0.203495
2.03322 0.290285 0.200255
2.0038 0.290285 0.398581
2.06612 0.382683 0.203495
2.03623 0.382683 0.405031
1.98042 0.19509 0.393929
1.93227 0.19509 0.586147
2.0038 0.290285 0.398581
1.95509 0.290285 0.593069
1.93227 0.19509 0.586147
1.86551 0.19509 0.77272
1.95509 0.290285 0.593069
1.88754 0.290285 0.781845
2.0038 0.290285 0.398581
1.95509 0.290285 0.593069
2.03623 0.382683 0.405031
1.98672 0.382683 0.602666
1.95509 0.290285 0.593069
1.88754 0.290285 0.781845
1.98672 0.382683 0.602666
1.91809 0.382683 0.794497
1.84776 1.22465e-16 0.765367
1.76384 1.22465e-16 0.942793
1.85221 0.0980171 0.76721
1.76809 0.0980171 0.945063
1.76384 1.22465e-16 0.942793
1.66294 1.22465e-16 1.11114
1.76809 0.0980171 0.945063
1.66694 0.0980171 1.11382
1.85221 0.0980171 0.76721
1.76809 0.0980171 0.945063
1.86551 0.19509 0.77272
1.78079 0.19509 0.951851
1.76809 0.0980171 0.945063
1.66694 0.0980171 1.11382
1.78079 0.19509 0.951851
1.67892 0.19509 1.12182
1.66294 1.22465e-16 1.11114
1.54602 1.22465e-16 1.26879
1.66694 0.0980171 1.11382
1.54974 0.0980171 1.27184
1.54602 1.22465e-16 1.26879
1.41421 1.22465e-16 1.41421
1.54974 0.0980171 1.27184
1.41762 0.0980171 1.41762
1.66694 0.0980171 1.11382
1.54974 0.0980171 1.27184
1.67892 0.19509 1.12182
1.56087 0.19509 1.28098
1.54974 0.0980171 1.27184
1.41762 0.0980171 1.41762
1.56087 0.19509 1.28098
1.4278 0.19509 1.4278
1.86551 0.19509 0.77272
1.78079 0.19509 0.951851
1.88754 0.290285 0.781845
1.80182 0.290285 0.963092
1.78079 0.19509 0.951851
1.67892 0.19509 1.12182
1.80182 0.290285 0.963092
1.69874 0.290285 1.13506
1.88754 0.290285 0.781845
1.80182 0.290285 0.963092
1.91809 0.382683 0.794497
1.83097 0.382683 0.978676
1.80182 0.290285 0.963092
1.69874 0.290285 1.13506
1.83097 0.382683 0.978676
1.72623 0.382683 1.15343
1.67892 0.19509 1.12182
1.56087 0.19509 1.28098
1.69874 0.290285 1.13506
1.57931 0.290285 1.2961
1.56087 0.19509 1.28098
1.4278 0.19509 1.4278
1.57931 0.290285 1.2961
1.44466 0.290285 1.44466
1.69874 0.290285 1.13506
1.57931 0.290285 1.2961
1.72623 0.382683 1.15343
1.60486 0.382683 1.31708
1.57931 0.290285 1.2961
1.44466 0.290285 1.44466
1.60486 0.382683 1.31708
1.46804 0.382683 1.46804
2.07612 0.382683 0
2.06612 0.382683 0.203495
2.11808 0.471397 0
2.10788 0.471397 0.207608
2.06612 0.382683 0.203495
2.03623 0.382683 0.405031
2.10788 0.471397 0.207608
2.07738 0.471397 0.413217
2.11808 0.471397 0
2.10788 0.471397 0.207608
2.16853 0.55557 0
2.15809 0.55557 0.212553
2.10788 0.471397 0.207608
2.07738 0.471397 0.413217
2.15809 0.55557 0.212553
2.12686 0.55557 0.423059
2.03623 0.382683 0.405031
1.98672 0.382683 0.602666
2.07738 0.471397 0.413217
2.02687 0.471397 0.614846
1.98672 0.382683 0.602666
1.91809 0.382683 0.794497
2.02687 0.471397 0.614846
1.95685 0.471397 0.810554
2.07738 0.471397 0.413217
2.02687 0.471397 0.614846
2.12686 0.55557 0.423059
2.07515 0.55557 0.629491
2.02687 0.471397 0.614846
1.95685 0.471397 0.810554
2.07515 0.55557 0.629491
2.00346 0.55557 0.829861
2.16853 0.55557 0
2.15809 0.55557 0.212553
2.22699 0.634393 0
2.21627 0.634393 0.218283
2.15809 0.55557 0.212553
2.12686 0.55557 0.423059
2.21627 0.634393 0.218283
2.1842 0.634393 0.434464
2.22699 0.634393 0
2.21627 0.634393 0.218283
2.29289 0.707107 0
2.28185 0.707107 0.224743
2.21627 0.634393 0.218283
2.1842 0.634393 0.434464
2.28185 0.707107 0.224743
2.24884 0.707107 0.447321
2.12686 0.55557 0.423059
2.07515 0.55557 0.629491
2.1842 0.634393 0.434464
2.1311 0.634393 0.646461
2.07515 0.55557 0.629491
2.00346 0.55557 0.829861
2.1311 0.634393 0.646461
2.05747 0.634393 0.852232
2.1842 0.634393 0.434464
2.1311 0.634393 0.646461
2.24884 0.707107 0.447321
2.19416 0.707107 0.665592
2.1311 0.634393 0.646461
2.05747 0.634393 0.852232
2.19416 0.707107 0.665592
2.11836 0.707107 0.877452
1.91809 0.382683 0.794497
1.83097 0.382683 0.978676
1.95685 0.471397 0.810554
1.86798 0.471397 0.998455
1.83097 0.382683 0.978676
1.72623 0.382683 1.15343
1.86798 0.471397 0.998455
1.76112 0.471397 1.17674
1.95685 0.471397 0.810554
1.86798 0.471397 0.998455
2.00346 0.55557 0.829861
1.91247 0.55557 1.02224
1.86798 0.471397 0.998455
1.76112 0.471397 1.17674
1.91247 0.55557 1.02224
1.80307 0.55557 1.20477
1.72623 0.382683 1.15343
1.60486 0.382683 1.31708
1.76112 0.471397 1.17674
1.6373 0.471397 1.34369
1.60486 0.382683 1.31708
1.46804 0.382683 1.46804
1.6373 0.471397 1.34369
1.49771 0.471397 1.49771
1.76112 0.471397 1.17674
1.6373 0.471397 1.34369
1.80307 0.55557 1.20477
1.6763 0.55557 1.3757
1.6373 0.471397 1.34369
1.49771 0.471397 1.49771
1.6763 0.55557 1.3757
1.53338 0.55557 1.53338
2.00346 0.55557 0.829861
1.91247 0.55557 1.02224
2.05747 0.634393 0.852232
1.96403 0.634393 1.0498
1.91247 0.55557 1.02224
1.80307 0.55557 1.20477
1.96403 0.634393 1.0498
1.85167 0.634393 1.23725
2.05747 0.634393 0.852232
1.96403 0.634393 1.0498
2.11836 0.707107 0.877452
2.02215 0.707107 1.08086
1.96403 0.634393 1.0498
1.85167 0.634393 1.23725
2.02215 0.707107 1.08086
1.90647 0.707107 1.27386
1.80307 0.55557 1.20477
1.6763 0.55557 1.3757
1.85167 0.634393 1.23725
1.72149 0.634393 1.41279
1.6763 0.55557 1.3757
1.53338 0.55557 1.53338
1.72149 0.634393 1.41279
1.57472 0.634393 1.57472
1.85167 0.634393 1.23725
1.72149 0.634393 1.41279
1.90647 0.707107 1.27386
1.77243 0.707107 1.4546
1.72149 0.634393 1.41279
1.57472 0.634393 1.57472
1.77243 0.707107 1.4546
1.62132 0.707107 1.62132
1.41421 1.22465e-16 1.41421
1.26879 1.22465e-16 1.54602
1.41762 0.0980171 1.41762
1.27184 0.0980171 1.54974
1.26879 1.22465e-16 1.54602
1.11114 1.22465e-16 1.66294
1.27184 0.0980171 1.54974
1.11382 0.0980171 1.66694
1.41762 0.0980171 1.41762
1.27184 0.0980171 1.54974
1.4278 0.19509 1.4278
1.28098 0.19509 1.56087
1.27184 0.0980171 1.54974
1.11382 0.0980171 1.66694
1.28098 0.19509 1.56087
1.12182 0.19509 1.67892
1.11114 1.22465e-16 1.66294
0.942793 1.22465e-16 1.76384
1.11382 0.0980171 1.66694
0.945063 0.0980171 1.76809
0.942793 1.22465e-16 1.76384
0.765367 1.22465e-16 1.84776
0.945063 0.0980171 1.76809
0.76721 0.0980171 1.85221
1.11382 0.0980171 1.66694
0.945063 0.0980171 1.76809
1.12182 0.19509 1.67892
0.951851 0.19509 1.78079
0.945063 0.0980171 1.76809
0.76721 0.0980171 1.85221
0.951851 0.19509 1.78079
0.77272 0.19509 1.86551
1.4278 0.19509 1.4278
1.28098 0.19509 1.56087
1.44466 0.290285 1.44466
1.2961 0.290285 1.57931
1.28098 0.19509 1.56087
1.12182 0.19509 1.67892
1.2961 0.290285 1.57931
1.13506 0.290285 1.69874
1.44466 0.290285 1.44466
1.2961 0.290285 1.57931
1.46804 0.382683 1.46804
1.31708 0.382683 1.60486
1.2961 0.290285 1.57931
1.13506 0.290285 1.69874
1.31708 0.382683 1.60486
1.15343 0.382683 1.72623
1.12182 0.19509 1.67892
0.951851 0.19509 1.78079
1.13506 0.290285 1.69874
0.963092 0.290285 1.80182
0.951851 0.19509 1.78079
0.77272 0.19509 1.86551
0.963092 0.290285 1.80182
0.781845 0.290285 1.88754
1.13506 0.290285 1.69874
0.963092 0.290285 1.80182
1.15343 0.382683 1.72623
0.978676 0.382683 1.83097
0.963092 0.290285 1.80182
0.781845 0.290285 1.88754
0.978676 0.382683 1.83097
0.794497 0.382683 1.91809
0.765367 1.22465e-16 1.84776
0.580569 1.22465e-16 1.91388
0.76721 0.0980171 1.85221
0.581967 0.0980171 1.91849
0.580569 1.22465e-16 1.91388
0.390181 1.22465e-16 1.96157
0.581967 0.0980171 1.91849
0.39112 0.0980171 1.96629
0.76721 0.0980171 1.85221
0.581967 0.0980171 1.91849
0.77272 0.19509 1.86551
0.586147 0.19509 1.93227
0.581967 0.0980171 1.91849
0.39112 0.0980171 1.96629
0.586147 0.19509 1.93227
0.393929 0.19509 1.98042
0.390181 1.22465e-16 1.96157
0.196034 1.22465e-16 1.99037
0.39112 0.0980171 1.96629
0.196506 0.0980171 1.99516
0.196034 1.22465e-16 1.99037
0 0 2
0.196506 0.0980171 1.99516
1.2276e-16 0.0980171 2.00482
0.39112 0.0980171 1.96629
0.196506 0.0980171 1.99516
0.393929 0.19509 1.98042
0.197918 0.19509 2.00949
0.196506 0.0980171 1.99516
1.2276e-16 0.0980171 2.00482
0.197918 0.19509 2.00949
1.23641e-16 0.19509 2.01921
0.77272 0.19509 1.86551
0.586147 0.19509 1.93227
0.781845 0.290285 1.88754
0.593069 0.290285 1.95509
0.586147 0.19509 1.93227
0.393929 0.19509 1.98042
0.593069 0.290285 1.95509
0.398581 0.290285 2.0038
0.781845 0.290285 1.88754
0.593069 0.290285 1.95509
0.794497 0.382683 1.91809
0.602666 0.382683 1.98672
0.593069 0.290285 1.95509
0.398581 0.290285 2.0038
0.602666 0.382683 1.98672
0.405031 0.382683 2.03623
0.393929 0.19509 1.98042
0.197918 0.19509 2.00949
0.398581 0.290285 2.0038
0.200255 0.290285 2.03322
0.197918 0.19509 2.00949
1.23641e-16 0.19509 2.01921
0.200255 0.290285 2.03322
1.25101e-16 0.290285 2.04306
0.398581 0.290285 2.0038
0.200255 0.290285 2.03322
0.405031 0.382683 2.03623
0.203495 0.382683 2.06612
0.200255 0.290285 2.03322
1.25101e-16 0.290285 2.04306
0.203495 0.382683 2.06612
1.27126e-16 0.382683 2.07612
1.46804 0.382683 1.46804
1.31708 0.382683 1.60486
1.49771 0.471397 1.49771
[...]
POINT_DATA 26188
SCALARS U double 1
LOOKUP_TABLE default
-0.016288 -0.0141296 -0.0162038 -0.0140856 -0.0141296 -0.0114777 -0.0140856 -0.011462 -0.0162038 -0.0140856 -0.01597 -0.0139664 -0.0140856 -0.011462 -0.0139664 -0.0114216 -0.0114777 -0.00974509 -0.011462 -0.00974475 -0.00974509 -0.00888916 -0.00974475 -0.00889983 -0.011462 -0.00974475 -0.0114216 -0.00974683 -0.00974475 -0.00889983 -0.00974683 -0.0089341 -0.01597 -0.0139664 -0.015635 -0.0138031 -0.0139664 -0.0114216 -0.0138031 -0.0113702 -0.015635 -0.0138031 -0.0152637 -0.0136368 -0.0138031 -0.0113702 -0.0136368 -0.0113257 -0.0114216 -0.00974683 -0.0113702 -0.00975591 -0.00974683 -0.0089341 -0.00975591 -0.00899496 -0.0113702 -0.00975591 -0.0113257 -0.00977647 -0.00975591 -0.00899496 -0.00977647 -0.00908553 -0.00888916 -0.00735537 -0.00889983 -0.00735693 -0.00735537 -0.00489997 -0.00735693 -0.00487112 -0.00889983 -0.00735693 -0.0089341 -0.00736134 -0.00735693 -0.00487112 -0.00736134 -0.00477661 -0.00489997 -0.00304804 -0.00487112 -0.00300753 -0.00304804 -0.00224651 -0.00300753 -0.00223354 -0.00487112 -0.00300753 -0.00477661 -0.00287113 -0.00300753 -0.00223354 -0.00287113 -0.00218274 -0.0089341 -0.00736134 -0.00899496 -0.0073671 -0.00736134 -0.00477661 -0.0073671 -0.00459692 -0.00899496 -0.0073671 -0.00908553 -0.00737777 -0.0073671 -0.00459692 -0.00737777 -0.00432025 -0.00477661 -0.00287113 -0.00459692 -0.00260046 -0.00287113 -0.00218274 -0.00260046 -0.00206059 -0.00459692 -0.00260046 -0.00432025 -0.00216007 -0.00260046 -0.00206059 -0.00216007 -0.00183122 -0.0152637 -0.0136368 -0.0149176 -0.013504 -0.0136368 -0.0113257 -0.013504 -0.011302 -0.0149176 -0.013504 -0.0146339 -0.0134218 -0.013504 -0.011302 -0.0134218 -0.0113012 -0.0113257 -0.00977647 -0.011302 -0.00980738 -0.00977647 -0.00908553 -0.00980738 -0.00920262 -0.011302 -0.00980738 -0.0113012 -0.00983452 -0.00980738 -0.00920262 -0.00983452 -0.00932457 -0.0146339 -0.0134218 -0.0144118 -0.0133778 -0.0134218 -0.0113012 -0.0133778 -0.0113075 -0.0144118 -0.0133778 -0.0142133 -0.0133293 -0.0133778 -0.0113075 -0.0133293 -0.0112852 -0.0113012 -0.00983452 -0.0113075 -0.0098243 -0.00983452 -0.00932457 -0.0098243 -0.00939821 -0.0113075 -0.0098243 -0.0112852 -0.0097234 -0.0098243 -0.00939821 -0.0097234 -0.00933544 -0.00908553 -0.00737777 -0.00920262 -0.00740183 -0.00737777 -0.00432025 -0.00740183 -0.00396006 -0.00920262 -0.00740183 -0.00932457 -0.0074415 -0.00740183 -0.00396006 -0.0074415 -0.00355848 -0.00432025 -0.00216007 -0.00396006 -0.0015497 -0.00216007 -0.00183122 -0.0015497 -0.00148442 -0.00396006 -0.0015497 -0.00355848 -0.000825604 -0.0015497 -0.00148442 -0.000825604 -0.0010592 -0.00932457 -0.0074415 -0.00939821 -0.00747325 -0.0074415 -0.00355848 -0.00747325 -0.00316853 -0.00939821 -0.00747325 -0.00933544 -0.00743268 -0.00747325 -0.00316853 -0.00743268 -0.00282279 -0.00355848 -0.000825604 -0.00316853 -9.12761e-05 -0.000825604 -0.0010592 -9.12761e-05 -0.000640849 -0.00316853 -9.12761e-05 -0.00282279 0.000544441 -9.12761e-05 -0.000640849 0.000544441 -0.00032525 -0.00224651 -0.00125631 -0.00223354 -0.00127248 -0.00125631 0.000130002 -0.00127248 0.000111002 -0.00223354 -0.00127248 -0.00218274 -0.00131758 -0.00127248 0.000111002 -0.00131758 5.26361e-05 0.000130002 0.000189116 0.000111002 0.000171506 0.000189116 -0.00178321 0.000171506 -0.00179993 0.000111002 0.000171506 5.26361e-05 0.000116714 0.000171506 -0.00179993 0.000116714 -0.00184449 -0.00218274 -0.00131758 -0.00206059 -0.00137819 -0.00131758 5.26361e-05 -0.00137819 -4.27548e-05 -0.00206059 -0.00137819 -0.00183122 -0.00143796 -0.00137819 -4.27548e-05 -0.00143796 -0.000170304 5.26361e-05 0.000116714 -4.27548e-05 2.6241e-05 0.000116714 -0.00184449 2.6241e-05 -0.00189932 -4.27548e-05 2.6241e-05 -0.000170304 -9.6395e-05 2.6241e-05 -0.00189932 -9.6395e-05 -0.00195246 -0.00178321 -0.00377694 -0.00179993 -0.0037761 -0.00377694 -0.00471199 -0.0037761 -0.00470395 -0.00179993 -0.0037761 -0.00184449 -0.00374997 -0.0037761 -0.00470395 -0.00374997 -0.0046449 -0.00471199 -0.00594557 -0.00470395 -0.00597484 -0.00594557 -0.00488258 -0.00597484 -0.00493327 -0.00470395 -0.00597484 -0.0046449 -0.00603834 -0.00597484 -0.00493327 -0.00603834 -0.00508336 -0.00184449 -0.00374997 -0.00189932 -0.00364091 -0.00374997 -0.0046449 -0.00364091 -0.00444308 -0.00189932 -0.00364091 -0.00195246 -0.00341251 -0.00364091 -0.00444308 -0.00341251 -0.00401701 -0.0046449 -0.00603834 -0.00444308 -0.00605661 -0.00603834 -0.00508336 -0.00605661 -0.00530978 -0.00444308 -0.00605661 -0.00401701 -0.005918 -0.00605661 -0.00530978 -0.005918 -0.00554925 -0.00183122 -0.00143796 -0.00148442 -0.00148973 -0.00143796 -0.000170304 -0.00148973 -0.000324203 -0.00148442 -0.00148973 -0.0010592 -0.00154724 -0.00148973 -0.000324203 -0.00154724 -0.000500926 -0.000170304 -9.6395e-05 -0.000324203 -0.000242462 -9.6395e-05 -0.00195246 -0.000242462 -0.00199727 -0.000324203 -0.000242462 -0.000500926 -0.000395871 -0.000242462 -0.00199727 -0.000395871 -0.0020139 -0.0010592 -0.00154724 -0.000640849 -0.00164414 -0.00154724 -0.000500926 -0.00164414 -0.000700811 -0.000640849 -0.00164414 -0.00032525 -0.00181738 -0.00164414 -0.000700811 -0.00181738 -0.000926543 -0.000500926 -0.000395871 -0.000700811 -0.000538889 -0.000395871 -0.0020139 -0.000538889 -0.00196133 -0.000700811 -0.000538889 -0.000926543 -0.000666713 -0.000538889 -0.00196133 -0.000666713 -0.00180775 -0.00195246 -0.00341251 -0.00199727 -0.00308025 -0.00341251 -0.00401701 -0.00308025 -0.00336135 -0.00199727 -0.00308025 -0.0020139 -0.00269055 -0.00308025 -0.00336135 -0.00269055 -0.0025694 -0.00401701 -0.005918 -0.00336135 -0.00550479 -0.005918 -0.00554925 -0.00550479 -0.00564597 -0.00336135 -0.00550479 -0.0025694 -0.00471464 -0.00550479 -0.00564597 -0.00471464 -0.00529319 -0.0020139 -0.00269055 -0.00196133 -0.0022751 -0.00269055 -0.0025694 -0.0022751 -0.00179962 -0.00196133 -0.0022751 -0.00180775 -0.00184205 -0.0022751 -0.00179962 -0.00184205 -0.00120992 -0.0025694 -0.00471464 -0.00179962 -0.00349939 -0.00471464 -0.00529319 -0.00349939 -0.00409726 -0.00179962 -0.00349939 -0.00120992 -0.00196862 -0.00349939 -0.00409726 -0.00196862 -0.00188064 -0.0142133 -0.0133293 -0.0139811 -0.0132151 -0.0133293 -0.0112852 -0.0132151 -0.0111835 -0.0139811 -0.0132151 -0.0136652 -0.0129752 -0.0132151 -0.0111835 -0.0129752 -0.0109468 -0.0112852 -0.0097234 -0.0111835 -0.00946908 -0.0097234 -0.00933544 -0.00946908 -0.00903055 -0.0111835 -0.00946908 -0.0109468 -0.00900987 -0.00946908 -0.00903055 -0.00900987 -0.00839981 -0.0136652 -0.0129752 -0.0132494 -0.0125718 -0.0129752 -0.0109468 -0.0125718 -0.0105275 -0.0132494 -0.0125718 -0.012761 -0.0120034 -0.0125718 -0.0105275 -0.0120034 -0.00990022 -0.0109468 -0.00900987 -0.0105275 -0.00832911 -0.00900987 -0.00839981 -0.00832911 -0.00742891 -0.0105275 -0.00832911 -0.00990022 -0.00745969 -0.00832911 -0.00742891 -0.00745969 -0.00620141 -0.00933544 -0.00743268 -0.00903055 -0.00722074 -0.00743268 -0.00282279 -0.00722074 -0.00251055 -0.00903055 -0.00722074 -0.00839981 -0.006739 -0.00722074 -0.00251055 -0.006739 -0.00218373 -0.00282279 0.000544441 -0.00251055 0.00101578 0.000544441 -0.00032525 0.00101578 -0.000174243 -0.00251055 0.00101578 -0.00218373 0.0013202 0.00101578 -0.000174243 0.0013202 -0.000194605 -0.00839981 -0.006739 -0.00742891 -0.00594231 -0.006739 -0.00218373 -0.00594231 -0.00179153 -0.00742891 -0.00594231 -0.00620141 -0.00487979 -0.00594231 -0.00179153 -0.00487979 -0.00132129 -0.00218373 0.0013202 -0.00179153 0.00149954 0.0013202 -0.000194605 0.00149954 -0.000348953 -0.00179153 0.00149954 -0.00132129 0.00160099 0.00149954 -0.000348953 0.00160099 -0.00058183 -0.012761 -0.0120034 -0.0122624 -0.0113063 -0.0120034 -0.00990022 -0.0113063 -0.00907221 -0.0122624 -0.0113063 -0.0118226 -0.0105441 -0.0113063 -0.00907221 -0.0105441 -0.00808868 -0.00990022 -0.00745969 -0.00907221 -0.00648136 -0.00745969 -0.00620141 -0.00648136 -0.00488567 -0.00907221 -0.00648136 -0.00808868 -0.00550057 -0.00648136 -0.00488567 -0.00550057 -0.00368006 -0.0118226 -0.0105441 -0.01151 -0.0097832 -0.0105441 -0.00808868 -0.0097832 -0.00702834 -0.01151 -0.0097832 -0.0113206 -0.0090888 -0.0097832 -0.00702834 -0.0090888 -0.0059832 -0.00808868 -0.00550057 -0.00702834 -0.00462109 -0.00550057 -0.00368006 -0.00462109 -0.00274314 -0.00702834 -0.00462109 -0.0059832 -0.00391934 -0.00462109 -0.00274314 -0.00391934 -0.00214467 -0.00620141 -0.00487979 -0.00488567 -0.00369515 -0.00487979 -0.00132129 -0.00369515 -0.000817417 -0.00488567 -0.00369515 -0.00368006 -0.00257905 -0.00369515 -0.000817417 -0.00257905 -0.000365264 -0.00132129 0.00160099 -0.000817417 0.00164565 0.00160099 -0.00058183 0.00164565 -0.000841729 -0.000817417 0.00164565 -0.000365264 0.00162347 0.00164565 -0.000841729 0.00162347 -0.00108817 -0.00368006 -0.00257905 -0.00274314 -0.00169706 -0.00257905 -0.000365264 -0.00169706 -5.04764e-05 -0.00274314 -0.00169706 -0.00214467 -0.00113283 -0.00169706 -5.04764e-05 -0.00113283 7.92807e-05 -0.000365264 0.00162347 -5.04764e-05 0.00151553 0.00162347 -0.00108817 0.00151553 -0.00128384 -5.04764e-05 0.00151553 7.92807e-05 0.00132339 0.00151553 -0.00128384 0.00132339 -0.0013867 -0.00032525 -0.00181738 -0.000174243 -0.00208843 -0.00181738 -0.000926543 -0.00208843 -0.00118019 -0.000174243 -0.00208843 -0.000194605 -0.00245624 -0.00208843 -0.00118019 -0.00245624 -0.00145854 -0.000926543 -0.000666713 -0.00118019 -0.000797629 -0.000666713 -0.00180775 -0.000797629 -0.00157959 -0.00118019 -0.000797629 -0.00145854 -0.000960448 -0.000797629 -0.00157959 -0.000960448 -0.00136738 -0.000194605 -0.00245624 -0.000348953 -0.00289967 -0.00245624 -0.00145854 -0.00289967 -0.00174393 -0.000348953 -0.00289967 -0.00058183 -0.00337795 -0.00289967 -0.00174393 -0.00337795 -0.00199026 -0.00145854 -0.000960448 -0.00174393 -0.00115401 -0.000960448 -0.00136738 -0.00115401 -0.00126652 -0.00174393 -0.00115401 -0.00199026 -0.00130605 -0.00115401 -0.00126652 -0.00130605 -0.0012914 -0.00180775 -0.00184205 -0.00157959 -0.00141164 -0.00184205 -0.00120992 -0.00141164 -0.000918181 -0.00157959 -0.00141164 -0.00136738 -0.00105087 -0.00141164 -0.000918181 -0.00105087 -0.000955762 -0.00120992 -0.00196862 -0.000918181 -0.000377372 -0.00196862 -0.00188064 -0.000377372 0.00110374 -0.000918181 -0.000377372 -0.000955762 0.000877539 -0.000377372 0.00110374 0.000877539 0.00408675 -0.00136738 -0.00105087 -0.00126652 -0.00084087 -0.00105087 -0.000955762 -0.00084087 -0.00128487 -0.00126652 -0.00084087 -0.0012914 -0.0008284 -0.00084087 -0.00128487 -0.0008284 -0.00181691 -0.000955762 0.000877539 -0.00128487 0.00148696 0.000877539 0.00408675 0.00148696 0.00627785 -0.00128487 0.00148696 -0.00181691 0.00143984 0.00148696 0.00627785 0.00143984 0.00738836 -0.00058183 -0.00337795 -0.000841729 -0.003825 -0.00337795 -0.00199026 -0.003825 -0.00211809 -0.000841729 -0.003825 -0.00108817 -0.00414754 -0.003825 -0.00211809 -0.00414754 -0.00203589 -0.00199026 -0.00130605 -0.00211809 -0.00126981 -0.00130605 -0.0012914 -0.00126981 -0.00135109 -0.00211809 -0.00126981 -0.00203589 -0.00088695 -0.00126981 -0.00135109 -0.00088695 -0.00130528 -0.00108817 -0.00414754 -0.00128384 -0.00424103 -0.00414754 -0.00203589 -0.00424103 -0.00168999 -0.00128384 -0.00424103 -0.0013867 -0.00403128 -0.00424103 -0.00168999 -0.00403128 -0.0011153 -0.00203589 -0.00088695 -0.00168999 -8.9497e-05 -0.00088695 -0.00130528 -8.9497e-05 -0.00105418 -0.00168999 -8.9497e-05 -0.0011153 0.00103625 -8.9497e-05 -0.00105418 0.00103625 -0.00057959 -0.0012914 -0.0008284 -0.00135109 -0.000987877 -0.0008284 -0.00181691 -0.000987877 -0.00248079 -0.00135109 -0.000987877 -0.00130528 -0.00123968 -0.000987877 -0.00248079 -0.00123968 -0.00323297 -0.00181691 0.00143984 -0.00248079 0.00098948 0.00143984 0.00738836 0.00098948 0.00770593 -0.00248079 0.00098948 -0.00323297 0.000378153 0.00098948 0.00770593 0.000378153 0.00763893 -0.00130528 -0.00123968 -0.00105418 -0.0014792 -0.00123968 -0.00323297 -0.0014792 -0.00403227 -0.00105418 -0.0014792 -0.00057959 -0.00159537 -0.0014792 -0.00403227 -0.00159537 -0.00476158 -0.00323297 0.000378153 -0.00403227 -0.000230176 0.000378153 0.00763893 -0.000230176 0.00749086 -0.00403227 -0.000230176 -0.00476158 -0.000740653 -0.000230176 0.00749086 -0.000740653 0.00737456 -0.0113015 -0.00905509 -0.0114897 -0.00974804 -0.00905509 -0.00594851 -0.00974804 -0.00699221 -0.0114897 -0.00974804 -0.0118027 -0.0105098 -0.00974804 -0.00699221 -0.0105098 -0.00805354 -0.00594851 -0.00389783 -0.00699221 -0.00459851 -0.00389783 -0.00213784 -0.00459851 -0.00273593 -0.00699221 -0.00459851 -0.00805354 -0.00547851 -0.00459851 -0.00273593 -0.00547851 -0.00367308 -0.0118027 -0.0105098 -0.0122443 -0.0112753 -0.0105098 -0.00805354 -0.0112753 -0.00904039 -0.0122443 -0.0112753 -0.012746 -0.0119774 -0.0112753 -0.00904039 -0.0119774 -0.00987355 -0.00805354 -0.00547851 -0.00904039 -0.0064614 -0.00547851 -0.00367308 -0.0064614 -0.00487959 -0.00904039 -0.0064614 -0.00987355 -0.00744312 -0.0064614 -0.00487959 -0.00744312 -0.00619683 -0.00213784 -0.00113335 -0.00273593 -0.00169785 -0.00113335 7.70901e-05 -0.00169785 -5.32726e-05 -0.00273593 -0.00169785 -0.00367308 -0.00258022 -0.00169785 -5.32726e-05 -0.00258022 -0.000368654 7.70901e-05 0.00131996 -5.32726e-05 0.00151149 0.00131996 -0.00139426 0.00151149 -0.00129177 -5.32726e-05 0.00151149 -0.000368654 0.00161882 0.00151149 -0.00129177 0.00161882 -0.00109642 -0.00367308 -0.00258022 -0.00487959 -0.00369683 -0.00258022 -0.000368654 -0.00369683 -0.000821371 -0.00487959 -0.00369683 -0.00619683 -0.00488211 -0.00369683 -0.000821371 -0.00488211 -0.00132575 -0.000368654 0.00161882 -0.000821371 0.00164047 0.00161882 -0.00109642 0.00164047 -0.00085021 -0.000821371 0.00164047 -0.00132575 0.00159536 0.00164047 -0.00085021 0.00159536 -0.00059044 -0.012746 -0.0119774 -0.0132381 -0.0125518 -0.0119774 -0.00987355 -0.0125518 -0.0105071 -0.0132381 -0.0125518 -0.013658 -0.0129615 -0.0125518 -0.0105071 -0.0129615 -0.0109327 -0.00987355 -0.00744312 -0.0105071 -0.00831671 -0.00744312 -0.00619683 -0.00831671 -0.00742622 -0.0105071 -0.00831671 -0.0109327 -0.00900187 -0.00831671 -0.00742622 -0.00900187 -0.00839916 -0.013658 -0.0129615 -0.0139775 -0.0132071 -0.0129615 -0.0109327 -0.0132071 -0.0111753 -0.0139775 -0.0132071 -0.0142129 -0.013326 -0.0132071 -0.0111753 -0.013326 -0.0112818 -0.0109327 -0.00900187 -0.0111753 -0.00946515 -0.00900187 -0.00839916 -0.00946515 -0.00903181 -0.0111753 -0.00946515 -0.0112818 -0.00972284 -0.00946515 -0.00903181 -0.00972284 -0.00933826 -0.00619683 -0.00488211 -0.00742622 -0.00594535 -0.00488211 -0.00132575 -0.00594535 -0.00179644 -0.00742622 -0.00594535 -0.00839916 -0.00674276 -0.00594535 -0.00179644 -0.00674276 -0.00218897 -0.00132575 0.00159536 -0.00179644 0.00149357 0.00159536 -0.00059044 0.00149357 -0.000357563 -0.00179644 0.00149357 -0.00218897 0.00131405 0.00149357 -0.000357563 0.00131405 -0.000203062 -0.00839916 -0.00674276 -0.00903181 -0.00722512 -0.00674276 -0.00218897 -0.00722512 -0.00251599 -0.00903181 -0.00722512 -0.00933826 -0.00743749 -0.00722512 -0.00251599 -0.00743749 -0.00282826 -0.00218897 0.00131405 -0.00251599 0.0010096 0.00131405 -0.000203062 0.0010096 -0.00018239 -0.00251599 0.0010096 -0.00282826 0.000538408 0.0010096 -0.00018239 0.000538408 -0.000332929 -0.00139426 -0.00404714 -0.00129177 -0.00425677 -0.00404714 -0.00114692 -0.00425677 -0.00172033 -0.00129177 -0.00425677 -0.00109642 -0.00416307 -0.00425677 -0.00172033 -0.00416307 -0.00206448 -0.00114692 0.00100286 -0.00172033 -0.000121626 0.00100286 -0.000549566 -0.000121626 -0.00103153 -0.00172033 -0.000121626 -0.00206448 -0.000920113 -0.000121626 -0.00103153 -0.000920113 -0.00130473 -0.00109642 -0.00416307 -0.00085021 -0.00384018 -0.00416307 -0.00206448 -0.00384018 -0.00214473 -0.00085021 -0.00384018 -0.00059044 -0.00339263 -0.00384018 -0.00214473 -0.00339263 -0.00201492 -0.00206448 -0.000920113 -0.00214473 -0.00130438 -0.000920113 -0.00130473 -0.00130438 -0.00137421 -0.00214473 -0.00130438 -0.00201492 -0.00134076 -0.00130438 -0.00137421 -0.00134076 -0.00132949 -0.000549566 -0.0017814 -0.00103153 -0.00162078 -0.0017814 -0.00549762 -0.00162078 -0.00459626 -0.00103153 -0.00162078 -0.00130473 -0.00134199 -0.00162078 -0.00459626 -0.00134199 -0.00359849 -0.00549762 -0.00101006 -0.00459626 -0.000456284 -0.00101006 0.00730211 -0.000456284 0.00741731 -0.00459626 -0.000456284 -0.00359849 0.000208535 -0.000456284 0.00741731 0.000208535 0.00756425 -0.00130473 -0.00134199 -0.00137421 -0.00106659 -0.00134199 -0.00359849 -0.00106659 -0.00269123 -0.00137421 -0.00106659 -0.00132949 -0.000894724 -0.00106659 -0.00269123 -0.000894724 -0.00193681 -0.00359849 0.000208535 -0.00269123 0.000867872 0.000208535 0.00756425 0.000867872 0.00763239 -0.00269123 0.000867872 -0.00193681 0.00134971 0.000867872 0.00763239 0.00134971 0.00731892 -0.00059044 -0.00339263 -0.000357563 -0.00291368 -0.00339263 -0.00201492 -0.00291368 -0.0017666 -0.000357563 -0.00291368 -0.000203062 -0.00246941 -0.00291368 -0.0017666 -0.00246941 -0.0014792 -0.00201492 -0.00134076 -0.0017666 -0.00118713 -0.00134076 -0.00132949 -0.00118713 -0.00130915 -0.0017666 -0.00118713 -0.0014792 -0.000990753 -0.00118713 -0.00130915 -0.000990753 -0.00140804 -0.000203062 -0.00246941 -0.00018239 -0.00210062 -0.00246941 -0.0014792 -0.00210062 -0.00119876 -0.00018239 -0.00210062 -0.000332929 -0.00182846 -0.00210062 -0.00119876 -0.00182846 -0.000942974 -0.0014792 -0.000990753 -0.00119876 -0.000824559 -0.000990753 -0.00140804 -0.000824559 -0.00161574 -0.00119876 -0.000824559 -0.000942974 -0.000690135 -0.000824559 -0.00161574 -0.000690135 -0.00183887 -0.00132949 -0.000894724 -0.00130915 -0.000899228 -0.000894724 -0.00193681 -0.000899228 -0.00136281 -0.00130915 -0.000899228 -0.00140804 -0.00110228 -0.000899228 -0.00136281 -0.00110228 -0.00101589 -0.00193681 0.00134971 -0.00136281 0.001415 0.00134971 0.00731892 0.001415 0.0062147 -0.00136281 0.001415 -0.00101589 0.000816887 0.001415 0.0062147 0.000816887 0.00403091 -0.00140804 -0.00110228 -0.00161574 -0.0014563 -0.00110228 -0.00101589 -0.0014563 -0.000968636 -0.00161574 -0.0014563 -0.00183887 -0.00188014 -0.0014563 -0.000968636 -0.00188014 -0.00125259 -0.00101589 0.000816887 -0.000968636 -0.000429132 0.000816887 0.00403091 -0.000429132 0.00105551 -0.000968636 -0.000429132 -0.00125259 -0.00201229 -0.000429132 0.00105551 -0.00201229 -0.00192142 -0.0142129 -0.013326 -0.0144136 -0.013378 -0.013326 -0.0112818 -0.013378 -0.0113077 -0.0144136 -0.013378 -0.0146371 -0.0134242 -0.013378 -0.0113077 -0.0134242 -0.0113037 -0.0112818 -0.00972284 -0.0113077 -0.0098262 -0.00972284 -0.00933826 -0.0098262 -0.00940209 -0.0113077 -0.0098262 -0.0113037 -0.0098379 -0.0098262 -0.00940209 -0.0098379 -0.00932899 -0.0146371 -0.0134242 -0.0149214 -0.0135074 -0.0134242 -0.0113037 -0.0135074 -0.0113055 -0.0149214 -0.0135074 -0.0152674 -0.0136404 -0.0135074 -0.0113055 -0.0136404 -0.0113295 -0.0113037 -0.0098379 -0.0113055 -0.00981139 -0.0098379 -0.00932899 -0.00981139 -0.00920707 -0.0113055 -0.00981139 -0.0113295 -0.00978041 -0.00981139 -0.00920707 -0.00978041 -0.00908958 -0.00933826 -0.00743749 -0.00940209 -0.00747826 -0.00743749 -0.00282826 -0.00747826 -0.00317387 -0.00940209 -0.00747826 -0.00932899 -0.00744643 -0.00747826 -0.00317387 -0.00744643 -0.00356349 -0.00282826 0.000538408 -0.00317387 -9.70041e-05 0.000538408 -0.000332929 -9.70041e-05 -0.000647913 -0.00317387 -9.70041e-05 -0.00356349 -0.000830866 -9.70041e-05 -0.000647913 -0.000830866 -0.00106551 -0.00932899 -0.00744643 -0.00920707 -0.0074064 -0.00744643 -0.00356349 -0.0074064 -0.00396456 -0.00920707 -0.0074064 -0.00908958 -0.00738174 -0.0074064 -0.00396456 -0.00738174 -0.00432407 -0.00356349 -0.000830866 -0.00396456 -0.00155435 -0.000830866 -0.00106551 -0.00155435 -0.00148987 -0.00396456 -0.00155435 -0.00432407 -0.00216396 -0.00155435 -0.00148987 -0.00216396 -0.0018357 -0.0152674 -0.0136404 -0.0156382 -0.0138063 -0.0136404 -0.0113295 -0.0138063 -0.0113735 -0.0156382 -0.0138063 -0.0159723 -0.0139687 -0.0138063 -0.0113735 -0.0139687 -0.011424 -0.0113295 -0.00978041 -0.0113735 -0.00975926 -0.00978041 -0.00908958 -0.00975926 -0.00899827 -0.0113735 -0.00975926 -0.011424 -0.00974924 -0.00975