# vtk DataFile Version 3.0
#This file was generated by the deal.II library on 2023/2/27 at 0:39:04
ASCII
DATASET UNSTRUCTURED_GRID

FIELD FieldData 2
CYCLE 1 1 int
6
TIME 1 1 double
0.012
POINTS 2296 double
-1.41421 1.22465e-16 1.41421
-2 0 0
-1.62132 0.707107 1.62132
-2.29289 0.707107 2.80798e-16
-1.62132 0.707107 1.62132
-2.29289 0.707107 2.80798e-16
-2.12132 1 2.12132
-3 1 0
-2.12132 -1 2.12132
-3 -1 0
-1.62132 -0.707107 1.62132
-2.29289 -0.707107 2.80798e-16
-1.62132 -0.707107 1.62132
-2.29289 -0.707107 2.80798e-16
-1.41421 1.22465e-16 1.41421
-2 0 0
-2.82843 0 2.82843
-4 0 0
-2.62132 -0.707107 2.62132
-3.70711 -0.707107 4.5399e-16
-2.62132 -0.707107 2.62132
-3.70711 -0.707107 4.5399e-16
-2.12132 -1 2.12132
-3 -1 0
-2.12132 1 2.12132
-3 1 0
-2.62132 0.707107 2.62132
-3.70711 0.707107 4.5399e-16
-2.62132 0.707107 2.62132
-3.70711 0.707107 4.5399e-16
-2.82843 0 2.82843
-4 0 0
-2 0 0
-1.41421 1.22465e-16 -1.41421
-2.29289 0.707107 2.80798e-16
-1.62132 0.707107 -1.62132
-1.41421 1.22465e-16 -1.41421
0 0 -2
-1.62132 0.707107 -1.62132
-4.21198e-16 0.707107 -2.29289
-2.29289 0.707107 2.80798e-16
-1.62132 0.707107 -1.62132
-3 1 0
-2.12132 1 -2.12132
-1.62132 0.707107 -1.62132
-4.21198e-16 0.707107 -2.29289
-2.12132 1 -2.12132
0 1 -3
-3 -1 0
-2.12132 -1 -2.12132
-2.29289 -0.707107 2.80798e-16
-1.62132 -0.707107 -1.62132
-2.12132 -1 -2.12132
0 -1 -3
-1.62132 -0.707107 -1.62132
-4.21198e-16 -0.707107 -2.29289
-2.29289 -0.707107 2.80798e-16
-1.62132 -0.707107 -1.62132
-2 0 0
-1.41421 1.22465e-16 -1.41421
-1.62132 -0.707107 -1.62132
-4.21198e-16 -0.707107 -2.29289
-1.41421 1.22465e-16 -1.41421
0 0 -2
-4 0 0
-2.82843 0 -2.82843
-3.70711 -0.707107 4.5399e-16
-2.62132 -0.707107 -2.62132
-2.82843 0 -2.82843
0 0 -4
-2.62132 -0.707107 -2.62132
-6.80984e-16 -0.707107 -3.70711
-3.70711 -0.707107 4.5399e-16
-2.62132 -0.707107 -2.62132
-3 -1 0
-2.12132 -1 -2.12132
-2.62132 -0.707107 -2.62132
-6.80984e-16 -0.707107 -3.70711
-2.12132 -1 -2.12132
0 -1 -3
-3 1 0
-2.12132 1 -2.12132
-3.70711 0.707107 4.5399e-16
-2.62132 0.707107 -2.62132
-2.12132 1 -2.12132
0 1 -3
-2.62132 0.707107 -2.62132
-6.80984e-16 0.707107 -3.70711
-3.70711 0.707107 4.5399e-16
-2.62132 0.707107 -2.62132
-4 0 0
-2.82843 0 -2.82843
-2.62132 0.707107 -2.62132
-6.80984e-16 0.707107 -3.70711
-2.82843 0 -2.82843
0 0 -4
0 0 -2
1.41421 1.22465e-16 -1.41421
-4.21198e-16 0.707107 -2.29289
1.62132 0.707107 -1.62132
1.41421 1.22465e-16 -1.41421
2 0 0
1.62132 0.707107 -1.62132
2.29289 0.707107 0
-4.21198e-16 0.707107 -2.29289
1.62132 0.707107 -1.62132
0 1 -3
2.12132 1 -2.12132
0 -1 -3
2.12132 -1 -2.12132
-4.21198e-16 -0.707107 -2.29289
1.62132 -0.707107 -1.62132
-4.21198e-16 -0.707107 -2.29289
1.62132 -0.707107 -1.62132
0 0 -2
1.41421 1.22465e-16 -1.41421
1.62132 -0.707107 -1.62132
2.29289 -0.707107 0
1.41421 1.22465e-16 -1.41421
2 0 0
0 0 -4
2.82843 0 -2.82843
-6.80984e-16 -0.707107 -3.70711
2.62132 -0.707107 -2.62132
2.82843 0 -2.82843
4 0 0
2.62132 -0.707107 -2.62132
3.70711 -0.707107 0
-6.80984e-16 -0.707107 -3.70711
2.62132 -0.707107 -2.62132
0 -1 -3
2.12132 -1 -2.12132
2.62132 -0.707107 -2.62132
3.70711 -0.707107 0
2.12132 -1 -2.12132
3 -1 0
0 1 -3
2.12132 1 -2.12132
-6.80984e-16 0.707107 -3.70711
2.62132 0.707107 -2.62132
2.12132 1 -2.12132
3 1 0
2.62132 0.707107 -2.62132
3.70711 0.707107 0
-6.80984e-16 0.707107 -3.70711
2.62132 0.707107 -2.62132
0 0 -4
2.82843 0 -2.82843
2.62132 0.707107 -2.62132
3.70711 0.707107 0
2.82843 0 -2.82843
4 0 0
0 0 4
-1.53073 0 3.69552
2.40268e-16 -0.382683 3.92388
-1.5016 -0.382683 3.62519
-1.53073 0 3.69552
-2.82843 0 2.82843
-1.5016 -0.382683 3.62519
-2.7746 -0.382683 2.7746
-1.5016 -0.382683 3.62519
-2.7746 -0.382683 2.7746
-1.41865 -0.707107 3.42492
-2.62132 -0.707107 2.62132
-1.41865 -0.707107 3.42492
-2.62132 -0.707107 2.62132
-1.2945 -0.92388 3.12519
-2.39192 -0.92388 2.39192
-1.2945 -0.92388 3.12519
-2.39192 -0.92388 2.39192
-1.14805 -1 2.77164
-2.12132 -1 2.12132
-1.14805 1 2.77164
-2.12132 1 2.12132
-1.2945 0.92388 3.12519
-2.39192 0.92388 2.39192
-1.2945 0.92388 3.12519
-2.39192 0.92388 2.39192
-1.41865 0.707107 3.42492
-2.62132 0.707107 2.62132
3.70711 -0.707107 0
3.42492 -0.707107 1.41865
3.38268 -0.92388 0
3.12519 -0.92388 1.2945
3.38268 -0.92388 0
3.12519 -0.92388 1.2945
3 -1 0
2.77164 -1 1.14805
1.40399e-16 0.707107 2.29289
-0.877452 0.707107 2.11836
1.60264e-16 0.92388 2.61732
-1.0016 0.92388 2.41809
-0.877452 0.707107 2.11836
-1.62132 0.707107 1.62132
-1.0016 0.92388 2.41809
-1.85072 0.92388 1.85072
-1.0016 0.92388 2.41809
-1.85072 0.92388 1.85072
-1.14805 1 2.77164
-2.12132 1 2.12132
-1.14805 -1 2.77164
-2.12132 -1 2.12132
-1.0016 -0.92388 2.41809
-1.85072 -0.92388 1.85072
-1.0016 -0.92388 2.41809
-1.85072 -0.92388 1.85072
-0.877452 -0.707107 2.11836
-1.62132 -0.707107 1.62132
3 1 0
2.77164 1 1.14805
3.38268 0.92388 0
3.12519 0.92388 1.2945
3.38268 0.92388 0
3.12519 0.92388 1.2945
3.70711 0.707107 0
3.42492 0.707107 1.41865
3.12519 0.92388 1.2945
2.39192 0.92388 2.39192
3.42492 0.707107 1.41865
2.62132 0.707107 2.62132
3.70711 0.707107 0
3.42492 0.707107 1.41865
3.92388 0.382683 0
3.62519 0.382683 1.5016
3.42492 0.707107 1.41865
2.62132 0.707107 2.62132
3.62519 0.382683 1.5016
2.7746 0.382683 2.7746
3.92388 0.382683 0
3.62519 0.382683 1.5016
4 0 0
3.69552 0 1.53073
3.62519 0.382683 1.5016
2.7746 0.382683 2.7746
3.69552 0 1.53073
2.82843 0 2.82843
-0.765367 1.22465e-16 1.84776
-1.41421 1.22465e-16 1.41421
-0.794497 0.382683 1.91809
-1.46804 0.382683 1.46804
-0.794497 0.382683 1.91809
-1.46804 0.382683 1.46804
-0.877452 0.707107 2.11836
-1.62132 0.707107 1.62132
-1.41865 0.707107 3.42492
-2.62132 0.707107 2.62132
-1.5016 0.382683 3.62519
-2.7746 0.382683 2.7746
-1.5016 0.382683 3.62519
-2.7746 0.382683 2.7746
-1.53073 0 3.69552
-2.82843 0 2.82843
4 0 0
3.69552 0 1.53073
3.92388 -0.382683 0
3.62519 -0.382683 1.5016
3.69552 0 1.53073
2.82843 0 2.82843
3.62519 -0.382683 1.5016
2.7746 -0.382683 2.7746
3.92388 -0.382683 0
3.62519 -0.382683 1.5016
3.70711 -0.707107 0
3.42492 -0.707107 1.41865
-0.877452 -0.707107 2.11836
-1.62132 -0.707107 1.62132
-0.794497 -0.382683 1.91809
-1.46804 -0.382683 1.46804
-0.794497 -0.382683 1.91809
-1.46804 -0.382683 1.46804
-0.765367 1.22465e-16 1.84776
-1.41421 1.22465e-16 1.41421
2 0 0
1.84776 1.22465e-16 0.765367
2.07612 0.382683 0
1.91809 0.382683 0.794497
1.84776 1.22465e-16 0.765367
1.41421 1.22465e-16 1.41421
1.91809 0.382683 0.794497
1.46804 0.382683 1.46804
2.07612 0.382683 0
1.91809 0.382683 0.794497
2.29289 0.707107 0
2.11836 0.707107 0.877452
1.91809 0.382683 0.794497
1.46804 0.382683 1.46804
2.11836 0.707107 0.877452
1.62132 0.707107 1.62132
2.29289 -0.707107 0
2.11836 -0.707107 0.877452
2.07612 -0.382683 0
1.91809 -0.382683 0.794497
2.11836 -0.707107 0.877452
1.62132 -0.707107 1.62132
1.91809 -0.382683 0.794497
1.46804 -0.382683 1.46804
2.07612 -0.382683 0
1.91809 -0.382683 0.794497
2 0 0
1.84776 1.22465e-16 0.765367
1.91809 -0.382683 0.794497
1.46804 -0.382683 1.46804
1.84776 1.22465e-16 0.765367
1.41421 1.22465e-16 1.41421
1.62132 0.707107 -1.62132
2.11836 0.707107 -0.877452
1.85072 0.92388 -1.85072
2.41809 0.92388 -1.0016
2.11836 0.707107 -0.877452
2.29289 0.707107 0
2.41809 0.92388 -1.0016
2.61732 0.92388 0
1.85072 0.92388 -1.85072
2.41809 0.92388 -1.0016
2.12132 1 -2.12132
2.77164 1 -1.14805
2.41809 0.92388 -1.0016
2.61732 0.92388 0
2.77164 1 -1.14805
3 1 0
2.12132 -1 -2.12132
2.77164 -1 -1.14805
1.85072 -0.92388 -1.85072
2.41809 -0.92388 -1.0016
2.77164 -1 -1.14805
3 -1 0
2.41809 -0.92388 -1.0016
2.61732 -0.92388 0
1.85072 -0.92388 -1.85072
2.41809 -0.92388 -1.0016
1.62132 -0.707107 -1.62132
2.11836 -0.707107 -0.877452
2.41809 -0.92388 -1.0016
2.61732 -0.92388 0
2.11836 -0.707107 -0.877452
2.29289 -0.707107 0
1.36066 0.83147 3.28492
0.693657 0.83147 3.48725
1.41865 0.707107 3.42492
0.723221 0.707107 3.63588
2.82843 0 2.82843
2.22228 0 3.32588
2.81484 -0.19509 2.81484
2.21161 -0.19509 3.3099
2.22228 0 3.32588
1.53073 0 3.69552
2.21161 -0.19509 3.3099
1.52338 -0.19509 3.67777
2.81484 -0.19509 2.81484
2.21161 -0.19509 3.3099
2.7746 -0.382683 2.7746
2.17999 -0.382683 3.26259
2.21161 -0.19509 3.3099
1.52338 -0.19509 3.67777
2.17999 -0.382683 3.26259
1.5016 -0.382683 3.62519
2.62132 -0.707107 2.62132
2.05956 -0.707107 3.08235
2.51417 -0.83147 2.51417
1.97537 -0.83147 2.95635
2.05956 -0.707107 3.08235
1.41865 -0.707107 3.42492
1.97537 -0.83147 2.95635
1.36066 -0.83147 3.28492
2.51417 -0.83147 2.51417
1.97537 -0.83147 2.95635
2.39192 -0.92388 2.39192
1.87932 -0.92388 2.8126
0.780361 0 3.92314
0 0 4
0.776613 -0.19509 3.9043
2.43753e-16 -0.19509 3.98079
0.776613 -0.19509 3.9043
2.43753e-16 -0.19509 3.98079
0.765511 -0.382683 3.84848
2.40268e-16 -0.382683 3.92388
-0.723221 -0.707107 3.63588
-1.41865 -0.707107 3.42492
-0.693657 -0.83147 3.48725
-1.36066 -0.83147 3.28492
2.17716e-16 -0.83147 3.55557
-0.693657 -0.83147 3.48725
2.0713e-16 -0.92388 3.38268
-0.659929 -0.92388 3.31769
-0.693657 -0.83147 3.48725
-1.36066 -0.83147 3.28492
-0.659929 -0.92388 3.31769
-1.2945 -0.92388 3.12519
2.12132 1 2.12132
1.66671 1 2.49441
2.25927 0.980785 2.25927
1.7751 0.980785 2.65662
1.66671 1 2.49441
1.14805 1 2.77164
1.7751 0.980785 2.65662
1.22271 0.980785 2.95188
2.25927 0.980785 2.25927
1.7751 0.980785 2.65662
2.39192 0.92388 2.39192
1.87932 0.92388 2.8126
1.7751 0.980785 2.65662
1.22271 0.980785 2.95188
1.87932 0.92388 2.8126
1.2945 0.92388 3.12519
0 1 3
-0.585271 1 2.94236
1.95643e-16 0.980785 3.19509
-0.623331 0.980785 3.1337
-0.585271 1 2.94236
-1.14805 1 2.77164
-0.623331 0.980785 3.1337
-1.22271 0.980785 2.95188
-0.623331 0.980785 3.1337
-1.22271 0.980785 2.95188
-0.659929 0.92388 3.31769
-1.2945 0.92388 3.12519
2.0713e-16 0.92388 3.38268
-0.659929 0.92388 3.31769
2.17716e-16 0.83147 3.55557
-0.693657 0.83147 3.48725
-0.659929 0.92388 3.31769
-1.2945 0.92388 3.12519
-0.693657 0.83147 3.48725
-1.36066 0.83147 3.28492
2.17716e-16 0.83147 3.55557
-0.693657 0.83147 3.48725
2.26995e-16 0.707107 3.70711
-0.723221 0.707107 3.63588
-0.693657 0.83147 3.48725
-1.36066 0.83147 3.28492
[...]
POINT_DATA 2296
SCALARS U double 1
LOOKUP_TABLE default
-0.000632816 -0.000593345 -0.000592521 -0.000603813 -0.000592521 -0.000603813 -0.000601488 -0.000599437 -0.000594358 -0.000601164 -0.00063113 -0.000593894 -0.00063113 -0.000593894 -0.000632816 -0.000593345 -0.000598518 -0.000600225 -0.000601532 -0.000599564 -0.000601532 -0.000599564 -0.000594358 -0.000601164 -0.000601488 -0.000599437 -0.000600291 -0.000599808 -0.000600291 -0.000599808 -0.000598518 -0.000600225 -0.000593345 -0.000594471 -0.000603813 -0.000592138 -0.000594471 -0.000629181 -0.000592138 -0.000628019 -0.000603813 -0.000592138 -0.000599437 -0.000600772 -0.000592138 -0.000628019 -0.000600772 -0.000597406 -0.000601164 -0.000600904 -0.000593894 -0.000593739 -0.000600904 -0.000595166 -0.000593739 -0.000631428 -0.000593894 -0.000593739 -0.000593345 -0.000594471 -0.000593739 -0.000631428 -0.000594471 -0.000629181 -0.000600225 -0.000600573 -0.000599564 -0.000600218 -0.000600573 -0.00059748 -0.000600218 -0.000599574 -0.000599564 -0.000600218 -0.000601164 -0.000600904 -0.000600218 -0.000599574 -0.000600904 -0.000595166 -0.000599437 -0.000600772 -0.000599808 -0.000600469 -0.000600772 -0.000597406 -0.000600469 -0.000598325 -0.000599808 -0.000600469 -0.000600225 -0.000600573 -0.000600469 -0.000598325 -0.000600573 -0.00059748 -0.000629181 -0.000486495 -0.000628019 -0.000494322 -0.000486495 -0.00103006 -0.000494322 -0.00100972 -0.000628019 -0.000494322 -0.000597406 -0.000609864 -0.000595166 -0.000618734 -0.000631428 -0.000478987 -0.000631428 -0.000478987 -0.000629181 -0.000486495 -0.000478987 -0.00106365 -0.000486495 -0.00103006 -0.00059748 -0.000609524 -0.000599574 -0.000601446 -0.000609524 -0.000564869 -0.000601446 -0.00059413 -0.000599574 -0.000601446 -0.000595166 -0.000618734 -0.000601446 -0.00059413 -0.000618734 -0.000531153 -0.000597406 -0.000609864 -0.000598325 -0.000606202 -0.000609864 -0.000568208 -0.000606202 -0.000575518 -0.000598325 -0.000606202 -0.00059748 -0.000609524 -0.000606202 -0.000575518 -0.000609524 -0.000564869 -0.000621244 -0.000605847 -0.000606021 -0.000608124 -0.000605847 -0.000598518 -0.000608124 -0.000600025 -0.000608124 -0.000600025 -0.000595927 -0.000601532 -0.000595927 -0.000601532 -0.000599077 -0.000597945 -0.000599077 -0.000597945 -0.000592653 -0.000594358 -0.000595836 -0.000601488 -0.00059838 -0.00060089 -0.00059838 -0.00060089 -0.000599616 -0.000600291 -0.00059413 -0.000712978 -0.000562641 -0.000682242 -0.000562641 -0.000682242 -0.000531153 -0.000167348 -0.000649353 -0.000587864 -0.000566098 -0.000611175 -0.000587864 -0.000592521 -0.000611175 -0.000597005 -0.000611175 -0.000597005 -0.000595836 -0.000601488 -0.000592653 -0.000594358 -0.000623537 -0.000612744 -0.000623537 -0.000612744 -0.000416731 -0.00063113 -0.000568208 -0.000262739 -0.000571863 -0.00040488 -0.000571863 -0.00040488 -0.000575518 -0.000952865 -0.00040488 0.00302799 -0.000952865 0.00115821 -0.000575518 -0.000952865 -0.000570194 -0.000757937 -0.000952865 0.00115821 -0.000757937 0.000741548 -0.000570194 -0.000757937 -0.000564869 -0.000725909 -0.000757937 0.000741548 -0.000725909 0.000532187 -0.000413995 -0.000632816 -0.00061432 -0.000612669 -0.00061432 -0.000612669 -0.000587864 -0.000592521 -0.000599616 -0.000600291 -0.000599502 -0.000599405 -0.000599502 -0.000599405 -0.000605847 -0.000598518 -0.000564869 -0.000725909 -0.0005795 -0.000768331 -0.000725909 0.000532187 -0.000768331 0.000662744 -0.0005795 -0.000768331 -0.00059413 -0.000712978 -0.000416731 -0.00063113 -0.000312124 -0.000631973 -0.000312124 -0.000631973 -0.000413995 -0.000632816 -0.00103006 -0.000344991 -0.00101989 -5.86367e-05 -0.000344991 0.00341569 -5.86367e-05 0.003973 -0.00101989 -5.86367e-05 -0.00100972 0.000338534 -5.86367e-05 0.003973 0.000338534 0.00462943 -0.00106365 0.000444858 -0.00104686 -3.03067e-06 0.000444858 0.00488061 -3.03067e-06 0.00411201 -0.00104686 -3.03067e-06 -0.00103006 -0.000344991 -3.03067e-06 0.00411201 -0.000344991 0.00341569 -0.000494322 -0.000752019 -0.000552093 -0.000660637 -0.000752019 -0.00100972 -0.000660637 -0.00074733 -0.000552093 -0.000660637 -0.000609864 -0.000589036 -0.000660637 -0.00074733 -0.000589036 -0.000568208 -0.000618734 -0.000574943 -0.000548861 -0.00066935 -0.000574943 -0.000531153 -0.00066935 -0.000772936 -0.000548861 -0.00066935 -0.000478987 -0.00077132 -0.00066935 -0.000772936 -0.00077132 -0.00106365 0.00663616 0.0049815 0.00586806 0.00488866 0.000532187 0.00316522 0.000597465 0.003272 0.00316522 0.00359997 0.003272 0.00405027 0.000597465 0.003272 0.000662744 0.00351811 0.003272 0.00405027 0.00351811 0.00437131 0.00125243 0.00443407 0.00229948 0.00470561 0.00443407 0.00579623 0.00470561 0.00686999 0.00229948 0.00470561 0.00278487 0.00459211 0.00565022 -0.000621244 0.00536608 -0.000613632 0.00536608 -0.000613632 0.00534331 -0.000606021 -0.000607753 -0.000595927 -0.000617334 -0.000597502 -0.000541641 -0.000617334 -0.000515604 -0.000618132 -0.000617334 -0.000597502 -0.000618132 -0.000599077 0.00314098 0.00583692 0.00296769 0.00514893 0.00583692 0.00775501 0.00514893 0.00736245 0.00296769 0.00514893 0.00302799 0.00449752 0.00514893 0.00736245 0.00449752 0.00707748 -0.000560406 -0.000608845 -0.000562049 -0.000606932 -0.000608845 -0.000595836 -0.000606932 -0.000597108 -0.000606932 -0.000597108 -0.000608806 -0.00059838 -0.000536111 -0.000608806 -0.000466562 -0.000602541 -0.000608806 -0.00059838 -0.000602541 -0.000598998 -0.000466562 -0.000602541 -0.000507293 -0.000594871 -0.000602541 -0.000598998 -0.000594871 -0.000599616 0.00514071 -0.000535816 0.00522922 -0.000541641 0.00302799 0.00449752 0.0020931 0.00482067 0.0020931 0.00482067 0.00115821 0.00441806 0.00482067 0.00663616 0.00441806 0.00586806 0.00586806 0.00488866 0.00627984 0.00489418 0.00489418 -0.000540235 0.00540012 -0.000617717 -0.000515604 -0.000618132 -0.000471585 -0.000594996 -0.000618132 -0.000599077 -0.000594996 -0.000595865 -0.000471585 -0.000594996 -0.000481894 -0.000625691 -0.000594996 -0.000595865 -0.000625691 -0.000592653 0.00370436 -0.000636 0.00359928 -0.000560406 -0.000566098 -0.000588637 -0.000636 -0.000604227 -0.000588637 -0.000611175 -0.000604227 -0.000603506 -0.000636 -0.000604227 -0.000560406 -0.000608845 -0.000604227 -0.000603506 -0.000608845 -0.000595836 -0.000507293 -0.000594871 -0.000540235 -0.000609927 -0.000594871 -0.000599616 -0.000609927 -0.000599559 -0.000609927 -0.000599559 -0.000589752 -0.000599502 -0.000617717 -0.000589752 -0.000538297 -0.00059506 -0.000589752 -0.000599502 -0.00059506 -0.000602674 -0.000538297 -0.00059506 -0.000621244 -0.000613545 -0.00059506 -0.000602674 -0.000613545 -0.000605847 0.00115821 0.00441806 0.000949877 0.00393853 0.000949877 0.00393853 0.000741548 0.00339824 0.00558858 0.00709912 0.00506114 0.00713641 0.00709912 0.00781158 0.00713641 0.00764096 0.00506114 0.00713641 0.00488061 0.00693035 0.00713641 0.00764096 0.00693035 0.0070368 -0.000481894 -0.000625691 -0.000389545 -0.000649945 -0.000625691 -0.000592653 -0.000649945 -0.000608095 -0.000389545 -0.000649945 -0.000531437 -0.000599033 -0.000649945 -0.000608095 -0.000599033 -0.000623537 0.00278487 0.00459211 0.0029976 0.00514119 0.0029976 0.00514119 0.00307375 0.0058891 0.00514119 0.00744946 0.0058891 0.00754197 -0.000606021 -0.000607072 -0.000524421 -0.00059625 -0.000607072 -0.000608124 -0.00059625 -0.000602026 -0.000524421 -0.00059625 -0.000535816 -0.000607753 -0.00059625 -0.000602026 -0.000607753 -0.000595927 0.00209205 -0.000649353 0.00265138 -0.000607726 0.00687945 0.00265138 0.0082134 0.00315325 0.00265138 -0.000607726 0.00315325 -0.000566098 0.00754197 0.00335208 0.00732242 0.00320619 0.00335208 -0.000481894 0.00320619 -0.000389545 0.00732242 0.00320619 0.00781158 0.00317685 0.00320619 -0.000389545 0.00317685 -0.000531437 0.000741548 0.00339824 0.000636867 0.00324177 0.00339824 0.00482352 0.00324177 0.00367723 0.000636867 0.00324177 0.000532187 0.00316522 0.00462943 0.00707531 0.00482936 0.00690846 0.0042646 0.00609832 0.00314098 0.00583692 0.00307375 0.0058891 0.0043552 0.00628106 0.0058891 0.00754197 0.00628106 0.00732242 -0.000599033 -0.000623537 -0.000586805 -0.000520134 -0.000586805 -0.000520134 -0.00093449 -0.000416731 -0.000934659 -0.000413995 -0.000676244 -0.000514158 -0.000464768 -0.000676244 -0.000516555 -0.000632885 -0.000676244 -0.000514158 -0.000632885 -0.00061432 -0.000712978 -9.93503e-05 -0.00069761 0.000698045 -9.93503e-05 0.00125243 0.000698045 0.00229948 -0.00069761 0.000698045 -0.000682242 0.000930717 0.000698045 0.00229948 0.000930717 0.00278487 -0.000682242 0.000930717 -0.000424795 0.00183779 0.000930717 0.00278487 0.00183779 0.0029976 -0.000424795 0.00183779 -0.000167348 0.00269269 0.00183779 0.0029976 0.00269269 0.00307375 -0.000262739 0.00274705 -0.000333809 0.00172221 0.00274705 0.00314098 0.00172221 0.00296769 -0.000333809 0.00172221 -0.00040488 0.00131156 0.00172221 0.00296769 0.00131156 0.00302799 -0.000516555 -0.000632885 -0.000580975 -0.000645576 -0.000632885 -0.00061432 -0.000645576 -0.000601092 -0.000580975 -0.000645576 -0.000649353 -0.000618608 -0.000645576 -0.000601092 -0.000618608 -0.000587864 0.00341569 0.00625409 0.00369434 0.00653506 0.00625409 0.00655797 0.00653506 0.00669456 0.00369434 0.00653506 0.003973 0.00682518 0.00653506 0.00669456 0.00682518 0.00690886 0.003973 0.00682518 0.00430121 0.00694669 0.00682518 0.00690886 0.00694669 0.00788491 0.00430121 0.00694669 0.00462943 0.00707531 0.00694669 0.00788491 0.00707531 0.00793868 -0.000768331 -5.27933e-05 -0.000740654 -0.000505675 -5.27933e-05 0.000662744 -0.000505675 0.000920959 -0.000740654 -0.000505675 -0.000712978 -9.93503e-05 -0.000505675 0.000920959 -9.93503e-05 0.00125243 -0.00100972 -0.00033559 -0.000878522 -0.000459841 -0.00033559 0.000338534 -0.000459841 -0.000501249 -0.000878522 -0.000459841 -0.00074733 -0.00083564 -0.000459841 -0.000501249 -0.00083564 -0.000749301 0.000338534 0.00248398 -0.000501249 0.00381081 0.00248398 0.00462943 0.00381081 0.00482936 -0.000501249 0.00381081 -0.000749301 0.00356508 0.00381081 0.00482936 0.00356508 0.00530229 -0.00074733 -0.00083564 -0.000657769 -0.000802969 -0.00083564 -0.000749301 -0.000802969 -0.000195405 -0.000657769 -0.000802969 -0.000568208 -0.000415473 -0.000802969 -0.000195405 -0.000415473 -0.000262739 -0.000749301 0.00356508 -0.000195405 0.00312071 0.00356508 0.00530229 0.00312071 0.0042646 -0.000195405 0.00312071 -0.000262739 0.00274705 0.00312071 0.0042646 0.00274705 0.00314098 -0.000531153 -0.00034925 -0.000652044 -0.000839514 -0.00034925 -0.000167348 -0.000839514 -0.000256946 -0.000652044 -0.000839514 -0.000772936 -0.000888907 -0.000839514 -0.000256946 -0.000888907 -0.00083719 -0.000167348 0.00269269 -0.000256946 0.00317504 0.00269269 0.00307375 0.00317504 0.0043552 -0.000256946 0.00317504 -0.00083719 0.00366312 0.00317504 0.0043552 0.00366312 0.00558858 -0.000772936 -0.000888907 -0.000918294 -0.000478931 -0.000888907 -0.00083719 -0.000478931 -0.000506231 -0.000918294 -0.000478931 -0.00106365 -0.000309398 -0.000478931 -0.000506231 -0.000309398 0.000444858 -0.00083719 0.00366312 -0.000506231 0.00397617 0.00366312 0.00558858 0.00397617 0.00506114 -0.000506231 0.00397617 0.000444858 0.00266274 0.00397617 0.00506114 0.00266274 0.00488061 0.00488061 0.00693035 0.00449631 0.00666373 0.00693035 0.0070368 0.00666373 0.00708007 0.00449631 0.00666373 0.00411201 0.00640509 0.00666373 0.00708007 0.00640509 0.00617035 0.0070368 0.0025905 0.00708007 0.00241574 0.0025905 -0.00133914 0.00241574 -0.00154182 0.00708007 0.00241574 0.00617035 0.00247313 0.00241574 -0.00154182 0.00247313 -0.00167583 0.00411201 0.00640509 0.00376385 0.00628463 0.00640509 0.00617035 0.00628463 0.00639215 0.00376385 0.00628463 0.00341569 0.00625409 0.00628463 0.00639215 0.00625409 0.00655797 0.00617035 0.00247313 0.00639215 0.00263598 0.00247313 -0.00167583 0.00263598 -0.00157998 0.00639215 0.00263598 0.00655797 0.00264629 0.00263598 -0.00157998 0.00264629 -0.0013381 -0.00133914 -0.00093449 -0.00154182 -0.00102896 -0.00093449 -0.000416731 -0.00102896 -0.000364428 -0.00154182 -0.00102896 -0.00167583 -0.00104661 -0.00102896 -0.000364428 -0.00104661 -0.000312124 -0.00167583 -0.00104661 -0.00157998 -0.00101961 -0.00104661 -0.000312124 -0.00101961 -0.00036306 -0.00157998 -0.00101961 -0.0013381 -0.000934659 -0.00101961 -0.00036306 -0.000934659 -0.000413995 0.00707748 0.0084218 0.00693824 0.00773907 0.0084218 0.00445377 0.00773907 0.00483451 0.00693824 0.00773907 0.00663616 0.00580883 0.00773907 0.00483451 0.00580883 0.0049815 0.00445377 0.002105 0.00483451 0.00218366 0.002105 -0.000536111 0.00218366 -0.000501337 0.00483451 0.00218366 0.0049815 0.00227039 0.00218366 -0.000501337 0.00227039 -0.000466562 0.00470561 0.0057878 0.00464886 0.00582254 0.0057878 0.00686999 0.00582254 0.00703956 0.00464886 0.00582254 0.00459211 0.00579724 0.00582254 0.00703956 0.00579724 0.00693727 0.0049815 0.00227039 0.00493508 0.00231006 0.00227039 -0.000466562 0.00231006 -0.000486927 0.00493508 0.00231006 0.00488866 0.00231558 0.00231006 -0.000486927 0.00231558 -0.000507293 0.00359997 0.00442468 0.00382512 0.00439646 0.00442468 0.00565022 0.00439646 0.00550815 0.00382512 0.00439646 0.00405027 0.00439267 0.00439646 0.00550815 0.00439267 0.00536608 0.00405027 0.00439267 0.00421079 0.0044276 0.00439267 0.00536608 0.0044276 0.00535469 0.00421079 0.0044276 0.00437131 0.00449822 0.0044276 0.00535469 0.00449822 0.00534331 0.00744946 0.00712841 0.00749571 0.00625605 0.00712841 0.00353965 0.00625605 0.00351702 0.00749571 0.00625605 0.00754197 0.00544702 0.00625605 0.00351702 0.00544702 0.00335208 -0.000535816 -0.000571784 -0.000538729 -0.000628651 -0.000571784 -0.000607753 -0.000628651 -0.000612543 -0.000538729 -0.000628651 -0.000541641 -0.000579488 -0.000628651 -0.000612543 -0.000579488 -0.000617334 0.00522922 0.00234379 0.00499373 0.0020824 0.00234379 -0.000541641 0.0020824 -0.000528622 0.00499373 0.0020824 0.00452155 0.00184363 0.0020824 -0.000528622 0.00184363 -0.000515604 0.00736245 0.00683719 0.00721997 0.00755321 0.00683719 0.00382154 0.00755321 0.00416232 0.00721997 0.00755321 0.00707748 0.0084218 0.00382154 0.00186464 0.00416232 0.00199968 0.00186464 -0.000562049 0.00199968 -0.000520964 0.00416232 0.00199968 0.00445377 0.002105 0.00199968 -0.000520964 0.002105 -0.000536111 -0.000562049 -0.000584491 -0.000520964 -0.000627142 -0.000584491 -0.000606932 -0.000627142 -0.000607869 -0.000520964 -0.000627142 -0.000536111 -0.000572459 -0.000627142 -0.000607869 -0.000572459 -0.000608806 0.00452155 0.00184363 0.00399118 0.00169637 0.00184363 -0.000515604 0.00169637 -0.000493594 0.00399118 0.00169637 0.00353965 0.00159082 0.00169637 -0.000493594 0.00159082 -0.000471585 0.00488866 0.00231558 0.00489142 0.00229252 0.00231558 -0.000507293 0.00229252 -0.000523764 0.00489142 0.00229252 0.00489418 0.00217697 0.00229252 -0.000523764 0.00217697 -0.000540235 0.00579623 0.0065006 0.00633311 0.0062956 0.0065006 0.00514071 0.0062956 0.00518496 0.00633311 0.0062956 0.00686999 0.00656305 0.0062956 0.00518496 0.00656305 0.00522922 0.00353965 0.00159082 0.00351702 0.0015005 0.00159082 -0.000471585 0.0015005 -0.000476739 0.00351702 0.0015005 0.00335208 0.00143509 0.0015005 -0.000476739 0.00143509 -0.000481894 0.00437131 0.00449822 0.00564787 0.00451475 0.00449822 0.00534331 0.00451475 0.0053218 0.00564787 0.00451475 0.00616853 0.00506943 0.00451475 0.0053218 0.00506943 0.00514674 0.00449752 0.0057875 0.00465909 0.00576948 0.0057875 0.00707748 0.00576948 0.00693824 0.00465909 0.00576948 0.00482067 0.00572842 0.00576948 0.00693824 0.00572842 0.00663616 0.00627984 0.00558701 0.00596784 0.00487332 0.00558701 0.00489418 0.00487332 0.00514715 0.00596784 0.00487332 0.00482352 0.00473664 0.00487332 0.00514715 0.00473664 0.00540012 0.0082134 0.00568332 0.00821217 0.00485288 0.00568332 0.00315325 0.00485288 0.00364707 0.00821217 0.00485288 0.00810206 0.00527602 0.00485288 0.00364707 0.00527602 0.00370436 0.00315325 0.00129357 0.00364707 0.00144421 0.00129357 -0.000566098 0.00144421 -0.000601049 0.00364707 0.00144421 0.00370436 0.00153418 0.00144421 -0.000601049 0.00153418 -0.000636 0.00534331 0.00236864 0.0053218 0.0023119 0.00236864 -0.000606021 0.0023119 -0.000565221 0.0053218 0.0023119 0.00514674 0.00228054 0.0023119 -0.000565221 0.00228054 -0.000524421 0.00514674 0.00228054 0.00506961 0.00229158 0.00228054 -0.000524421 0.00229158 -0.000530119 0.00506961 0.00229158 0.00514071 0.00230245 0.00229158 -0.000530119 0.00230245 -0.000535816 0.00775501 0.0067741 0.00755873 0.00672743 0.0067741 0.00359928 0.00672743 0.00365278 0.00755873 0.00672743 0.00736245 0.00683719 0.00672743 0.00365278 0.00683719 0.00382154 0.00359928 0.00151943 0.00365278 0.00163221 0.00151943 -0.000560406 0.00163221 -0.000561228 0.00365278 0.00163221 0.00382154 0.00186464 0.00163221 -0.000561228 0.00186464 -0.000562049 -0.000540235 -0.000575081 -0.000578976 -0.000632875 -0.000575081 -0.000609927 -0.000632875 -0.00059984 -0.000578976 -0.000632875 -0.000617717 -0.000603734 -0.000632875 -0.00059984 -0.000603734 -0.000589752 0.00540012 0.0023912 0.00573395 0.00233911 0.0023912 -0.000617717 0.00233911 -0.000578007 0.00573395 0.00233911 0.00598649 0.00231634 0.00233911 -0.000578007 0.00231634 -0.000538297 0.00598649 0.00231634 0.00590526 0.00237976 0.00231634 -0.000538297 0.00237976 -0.00057977 0.00590526 0.00237976 0.00565022 0.00251449 0.00237976 -0.00057977 0.00251449 -0.000621244 0.00527602 0.00370436 0.00603059 0.00365182 0.00603059 0.00365182 0.0067741 0.00359928 0.00441806 0.00514306 0.0041783 0.00457461 0.00514306 0.00586806 0.00457461 0.00607395 0.0041783 0.00457461 0.00393853 0.00412253 0.00457461 0.00607395 0.00412253 0.00627984 0.00393853 0.00412253 0.00366839 0.00404342 0.00412253 0.00627984 0.00404342 0.00596784 0.00366839 0.00404342 0.00339824 0.00411088 0.00404342 0.00596784 0.00411088 0.00482352 0.000662744 0.00209043 0.000791852 0.00272093 0.00209043 0.00351811 0.00272093 0.00369559 0.000791852 0.00272093 0.000920959 0.00267682 0.00272093 0.00369559 0.00267682 0.00371699 0.00351811 0.00394471 0.00369559 0.00393331 0.00394471 0.00437131 0.00393331 0.00564787 0.00369559 0.00393331 0.00371699 0.0041449 0.00393331 0.00564787 0.0041449 0.00616853 0.00482352 0.00473664 0.00425038 0.00451587 0.00425038 0.00451587 0.00367723 0.00445107 0.00367723 0.00445107 0.00314796 0.00451512 0.00314796 0.00451512 0.00359997 0.00442468 0.000920959 0.00267682 0.0010867 0.00284494 0.00267682 0.00371699 0.00284494 0.00389236 0.0010867 0.00284494 0.00125243 0.00284325 0.00284494 0.00389236 0.00284325 0.00443407 0.00371699 0.0041449 0.00389236 0.00470116 0.0041449 0.00616853 0.00470116 0.00606183 0.00389236 0.00470116 0.00443407 0.00511515 0.00470116 0.00606183 0.00511515 0.00579623 0.00459211 0.00579724 0.00486665 0.00593401 0.00579724 0.00693727 0.00593401 0.00699778 0.00486665 0.00593401 0.00514119 0.00629532 0.00593401 0.00699778 0.00629532 0.00744946 0.0045696 0.00209205 0.00458567 0.00237171 0.00730309 0.00458567 0.00687945 0.00476542 0.00458567 0.00237171 0.00476542 0.00265138 0.00324177 0.0034595 0.0032035 0.00330862 0.0034595 0.00367723 0.00330862 0.00314796 0.0032035 0.00330862 0.00316522 0.0033826 0.00330862 0.00314796 0.0033826 0.00359997 0.00707531 0.007507 0.00699189 0.0083985 0.007507 0.00793868 0.0083985 0.00730309 0.00699189 0.0083985 0.00690846 0.00822754 0.0083985 0.00730309 0.00822754 0.00687945 0.00482936 0.00586891 0.00506582 0.00605026 0.00586891 0.00690846 0.00605026 0.0067222 0.00506582 0.00605026 0.00530229 0.00589065 0.00605026 0.0067222 0.00589065 0.0064535 0.00690846 0.00822754 0.0067222 0.00799737 0.00822754 0.00687945 0.00799737 0.00754643 0.0067222 0.00799737 0.0064535 0.00787391 0.00799737 0.00754643 0.00787391 0.0082134 0.00530229 0.00589065 0.00478344 0.00563319 0.00589065 0.0064535 0.00563319 0.00621771 0.00478344 0.00563319 0.0042646 0.00518146 0.00563319 0.00621771 0.00518146 0.00609832 0.0064535 0.00787391 0.00621771 0.00762429 0.00787391 0.0082134 0.00762429 0.00821217 0.00621771 0.00762429 0.00609832 0.00729671 0.00762429 0.00821217 0.00729671 0.00810206 0.00609832 0.00729671 0.00596762 0.00698745 0.00729671 0.00810206 0.00698745 0.00797025 0.00596762 0