# vtk DataFile Version 3.0
#This file was generated by the deal.II library on 2023/3/1 at 4:17:38
ASCII
DATASET UNSTRUCTURED_GRID

FIELD FieldData 2
CYCLE 1 1 int
192
TIME 1 1 double
0.384
POINTS 9796 double
2.11836 0.707107 0.877452
1.62132 0.707107 1.62132
2.41809 0.92388 1.0016
1.85072 0.92388 1.85072
2.77164 -1 1.14805
2.12132 -1 2.12132
2.41809 -0.92388 1.0016
1.85072 -0.92388 1.85072
2.61732 -0.92388 0
2.41809 -0.92388 1.0016
2.29289 -0.707107 0
2.11836 -0.707107 0.877452
2.41809 -0.92388 1.0016
1.85072 -0.92388 1.85072
2.11836 -0.707107 0.877452
1.62132 -0.707107 1.62132
3.12519 -0.92388 1.2945
2.39192 -0.92388 2.39192
2.77164 -1 1.14805
2.12132 -1 2.12132
3.38268 0.92388 0
3.12519 0.92388 1.2945
3.70711 0.707107 0
3.42492 0.707107 1.41865
1.62132 0.707107 1.62132
0.877452 0.707107 2.11836
1.85072 0.92388 1.85072
1.0016 0.92388 2.41809
0.877452 0.707107 2.11836
1.40399e-16 0.707107 2.29289
1.0016 0.92388 2.41809
1.60264e-16 0.92388 2.61732
2.12132 -1 2.12132
1.14805 -1 2.77164
1.85072 -0.92388 1.85072
1.0016 -0.92388 2.41809
1.85072 -0.92388 1.85072
1.0016 -0.92388 2.41809
1.62132 -0.707107 1.62132
0.877452 -0.707107 2.11836
1.0016 -0.92388 2.41809
1.60264e-16 -0.92388 2.61732
0.877452 -0.707107 2.11836
1.40399e-16 -0.707107 2.29289
3.69552 0 1.53073
2.82843 0 2.82843
3.62519 -0.382683 1.5016
2.7746 -0.382683 2.7746
2.39192 0.92388 2.39192
1.2945 0.92388 3.12519
2.62132 0.707107 2.62132
1.41865 0.707107 3.42492
3.62519 0.382683 1.5016
2.7746 0.382683 2.7746
3.69552 0 1.53073
2.82843 0 2.82843
1.41421 1.22465e-16 1.41421
0.765367 1.22465e-16 1.84776
1.46804 0.382683 1.46804
0.794497 0.382683 1.91809
0.765367 1.22465e-16 1.84776
0 0 2
0.794497 0.382683 1.91809
1.27126e-16 0.382683 2.07612
1.46804 0.382683 1.46804
0.794497 0.382683 1.91809
1.62132 0.707107 1.62132
0.877452 0.707107 2.11836
1.84776 1.22465e-16 0.765367
1.41421 1.22465e-16 1.41421
1.91809 0.382683 0.794497
1.46804 0.382683 1.46804
1.91809 0.382683 0.794497
1.46804 0.382683 1.46804
2.11836 0.707107 0.877452
1.62132 0.707107 1.62132
2.7746 -0.382683 2.7746
1.5016 -0.382683 3.62519
2.62132 -0.707107 2.62132
1.41865 -0.707107 3.42492
-0.794497 0.382683 1.91809
-1.46804 0.382683 1.46804
-0.877452 0.707107 2.11836
-1.62132 0.707107 1.62132
1.84776 1.22465e-16 -0.765367
2 0 0
1.91809 0.382683 -0.794497
2.07612 0.382683 0
1.91809 0.382683 -0.794497
2.07612 0.382683 0
2.11836 0.707107 -0.877452
2.29289 0.707107 0
2.11836 0.707107 -0.877452
2.29289 0.707107 0
2.41809 0.92388 -1.0016
2.61732 0.92388 0
2.41809 0.92388 -1.0016
2.61732 0.92388 0
2.77164 1 -1.14805
3 1 0
2.7746 -0.382683 -2.7746
3.62519 -0.382683 -1.5016
2.62132 -0.707107 -2.62132
3.42492 -0.707107 -1.41865
2.77164 -1 -1.14805
3 -1 0
2.41809 -0.92388 -1.0016
2.61732 -0.92388 0
1.85072 -0.92388 -1.85072
2.41809 -0.92388 -1.0016
1.62132 -0.707107 -1.62132
2.11836 -0.707107 -0.877452
2.41809 -0.92388 -1.0016
2.61732 -0.92388 0
2.11836 -0.707107 -0.877452
2.29289 -0.707107 0
1.91809 -0.382683 -0.794497
2.07612 -0.382683 0
1.84776 1.22465e-16 -0.765367
2 0 0
3.12519 -0.92388 -1.2945
3.38268 -0.92388 0
2.77164 -1 -1.14805
3 -1 0
2.29289 -0.707107 0
2.11836 -0.707107 0.877452
2.07612 -0.382683 0
1.91809 -0.382683 0.794497
2.11836 -0.707107 0.877452
1.62132 -0.707107 1.62132
1.91809 -0.382683 0.794497
1.46804 -0.382683 1.46804
1.91809 -0.382683 0.794497
1.46804 -0.382683 1.46804
1.84776 1.22465e-16 0.765367
1.41421 1.22465e-16 1.41421
1.62132 -0.707107 1.62132
0.877452 -0.707107 2.11836
1.46804 -0.382683 1.46804
0.794497 -0.382683 1.91809
0.877452 -0.707107 2.11836
1.40399e-16 -0.707107 2.29289
0.794497 -0.382683 1.91809
1.27126e-16 -0.382683 2.07612
-1.62132 0.707107 -1.62132
-1.27386 0.707107 -1.90647
-1.72847 0.83147 -1.72847
-1.35805 0.83147 -2.03247
-1.27386 0.707107 -1.90647
-0.877452 0.707107 -2.11836
-1.35805 0.83147 -2.03247
-0.935443 0.83147 -2.25836
-1.72847 0.83147 -1.72847
-1.35805 0.83147 -2.03247
-1.85072 0.92388 -1.85072
-1.4541 0.92388 -2.17622
-1.35805 0.83147 -2.03247
-0.935443 0.83147 -2.25836
-1.4541 0.92388 -2.17622
-1.0016 0.92388 -2.41809
2.29289 0.707107 0
2.24884 0.707107 0.447321
2.44443 0.83147 0
2.39746 0.83147 0.476885
2.24884 0.707107 0.447321
2.11836 0.707107 0.877452
2.39746 0.83147 0.476885
2.25836 0.83147 0.935443
2.44443 0.83147 0
2.39746 0.83147 0.476885
2.61732 0.92388 0
2.56703 0.92388 0.510613
2.39746 0.83147 0.476885
2.25836 0.83147 0.935443
2.56703 0.92388 0.510613
2.41809 0.92388 1.0016
2.61732 0.92388 0
2.56703 0.92388 0.510613
2.80491 0.980785 0
2.75101 0.980785 0.547211
2.56703 0.92388 0.510613
2.41809 0.92388 1.0016
2.75101 0.980785 0.547211
2.5914 0.980785 1.07339
2.80491 0.980785 0
2.75101 0.980785 0.547211
3 1 0
2.94236 1 0.585271
2.75101 0.980785 0.547211
2.5914 0.980785 1.07339
2.94236 1 0.585271
2.77164 1 1.14805
2.41809 0.92388 1.0016
2.17622 0.92388 1.4541
2.5914 0.980785 1.07339
2.3322 0.980785 1.55832
2.17622 0.92388 1.4541
1.85072 0.92388 1.85072
2.3322 0.980785 1.55832
1.98337 0.980785 1.98337
2.5914 0.980785 1.07339
2.3322 0.980785 1.55832
2.77164 1 1.14805
2.49441 1 1.66671
3 -1 0
2.94236 -1 0.585271
2.80491 -0.980785 0
2.75101 -0.980785 0.547211
2.94236 -1 0.585271
2.77164 -1 1.14805
2.75101 -0.980785 0.547211
2.5914 -0.980785 1.07339
2.80491 -0.980785 0
2.75101 -0.980785 0.547211
2.61732 -0.92388 0
2.56703 -0.92388 0.510613
2.75101 -0.980785 0.547211
2.5914 -0.980785 1.07339
2.56703 -0.92388 0.510613
2.41809 -0.92388 1.0016
-1.85072 -0.92388 -1.85072
-1.4541 -0.92388 -2.17622
-1.72847 -0.83147 -1.72847
-1.35805 -0.83147 -2.03247
-1.4541 -0.92388 -2.17622
-1.0016 -0.92388 -2.41809
-1.35805 -0.83147 -2.03247
-0.935443 -0.83147 -2.25836
-1.72847 -0.83147 -1.72847
-1.35805 -0.83147 -2.03247
-1.62132 -0.707107 -1.62132
-1.27386 -0.707107 -1.90647
-1.35805 -0.83147 -2.03247
-0.935443 -0.83147 -2.25836
-1.27386 -0.707107 -1.90647
-0.877452 -0.707107 -2.11836
-1.85072 0.92388 -1.85072
-1.4541 0.92388 -2.17622
-1.98337 0.980785 -1.98337
-1.55832 0.980785 -2.3322
-1.4541 0.92388 -2.17622
-1.0016 0.92388 -2.41809
-1.55832 0.980785 -2.3322
-1.07339 0.980785 -2.5914
-1.98337 0.980785 -1.98337
-1.55832 0.980785 -2.3322
-2.12132 1 -2.12132
-1.66671 1 -2.49441
-1.55832 0.980785 -2.3322
-1.07339 0.980785 -2.5914
-1.66671 1 -2.49441
-1.14805 1 -2.77164
-3.62519 -0.382683 -1.5016
-3.26259 -0.382683 -2.17999
-3.53982 -0.55557 -1.46624
-3.18575 -0.55557 -2.12865
-3.26259 -0.382683 -2.17999
-2.7746 -0.382683 -2.7746
-3.18575 -0.55557 -2.12865
-2.70926 -0.55557 -2.70926
-3.53982 -0.55557 -1.46624
-3.18575 -0.55557 -2.12865
-3.42492 -0.707107 -1.41865
-3.08235 -0.707107 -2.05956
-3.18575 -0.55557 -2.12865
-2.70926 -0.55557 -2.70926
-3.08235 -0.707107 -2.05956
-2.62132 -0.707107 -2.62132
3.42492 -0.707107 1.41865
3.08235 -0.707107 2.05956
3.28492 -0.83147 1.36066
2.95635 -0.83147 1.97537
3.08235 -0.707107 2.05956
2.62132 -0.707107 2.62132
2.95635 -0.83147 1.97537
2.51417 -0.83147 2.51417
3.28492 -0.83147 1.36066
2.95635 -0.83147 1.97537
3.12519 -0.92388 1.2945
2.8126 -0.92388 1.87932
2.95635 -0.83147 1.97537
2.51417 -0.83147 2.51417
2.8126 -0.92388 1.87932
2.39192 -0.92388 2.39192
-3.32588 0 -2.22228
-2.82843 0 -2.82843
-3.3099 -0.19509 -2.21161
-2.81484 -0.19509 -2.81484
-3.3099 -0.19509 -2.21161
-2.81484 -0.19509 -2.81484
-3.26259 -0.382683 -2.17999
-2.7746 -0.382683 -2.7746
3.38268 -0.92388 0
3.31769 -0.92388 0.659929
3.19509 -0.980785 0
3.1337 -0.980785 0.623331
3.31769 -0.92388 0.659929
3.12519 -0.92388 1.2945
3.1337 -0.980785 0.623331
2.95188 -0.980785 1.22271
3.19509 -0.980785 0
3.1337 -0.980785 0.623331
3 -1 0
2.94236 -1 0.585271
3.1337 -0.980785 0.623331
2.95188 -0.980785 1.22271
2.94236 -1 0.585271
2.77164 -1 1.14805
-1.66671 -1 -2.49441
-1.14805 -1 -2.77164
-1.55832 -0.980785 -2.3322
-1.07339 -0.980785 -2.5914
-1.55832 -0.980785 -2.3322
-1.07339 -0.980785 -2.5914
-1.4541 -0.92388 -2.17622
-1.0016 -0.92388 -2.41809
1.85072 0.92388 1.85072
1.4541 0.92388 2.17622
1.98337 0.980785 1.98337
1.55832 0.980785 2.3322
1.4541 0.92388 2.17622
1.0016 0.92388 2.41809
1.55832 0.980785 2.3322
1.07339 0.980785 2.5914
1.98337 0.980785 1.98337
1.55832 0.980785 2.3322
2.12132 1 2.12132
1.66671 1 2.49441
1.55832 0.980785 2.3322
1.07339 0.980785 2.5914
1.66671 1 2.49441
1.14805 1 2.77164
3 1 0
2.94236 1 0.585271
3.19509 0.980785 0
3.1337 0.980785 0.623331
2.94236 1 0.585271
2.77164 1 1.14805
3.1337 0.980785 0.623331
2.95188 0.980785 1.22271
3.19509 0.980785 0
3.1337 0.980785 0.623331
3.38268 0.92388 0
3.31769 0.92388 0.659929
3.1337 0.980785 0.623331
2.95188 0.980785 1.22271
3.31769 0.92388 0.659929
3.12519 0.92388 1.2945
-1.46804 0.382683 -1.46804
-1.15343 0.382683 -1.72623
-1.53338 0.55557 -1.53338
-1.20477 0.55557 -1.80307
-1.15343 0.382683 -1.72623
-0.794497 0.382683 -1.91809
-1.20477 0.55557 -1.80307
-0.829861 0.55557 -2.00346
-1.53338 0.55557 -1.53338
-1.20477 0.55557 -1.80307
-1.62132 0.707107 -1.62132
-1.27386 0.707107 -1.90647
-1.20477 0.55557 -1.80307
-0.829861 0.55557 -2.00346
-1.27386 0.707107 -1.90647
-0.877452 0.707107 -2.11836
2.77164 1 1.14805
2.49441 1 1.66671
2.95188 0.980785 1.22271
2.65662 0.980785 1.7751
2.95188 0.980785 1.22271
2.65662 0.980785 1.7751
3.12519 0.92388 1.2945
2.8126 0.92388 1.87932
2.65662 0.980785 1.7751
2.25927 0.980785 2.25927
2.8126 0.92388 1.87932
2.39192 0.92388 2.39192
3.12519 0.92388 1.2945
2.8126 0.92388 1.87932
3.28492 0.83147 1.36066
2.95635 0.83147 1.97537
2.8126 0.92388 1.87932
2.39192 0.92388 2.39192
2.95635 0.83147 1.97537
2.51417 0.83147 2.51417
3.28492 0.83147 1.36066
2.95635 0.83147 1.97537
3.42492 0.707107 1.41865
3.08235 0.707107 2.05956
2.95635 0.83147 1.97537
2.51417 0.83147 2.51417
3.08235 0.707107 2.05956
2.62132 0.707107 2.62132
-3.92314 0 -0.780361
-3.69552 0 -1.53073
-3.9043 -0.19509 -0.776613
-3.67777 -0.19509 -1.52338
3.55557 -0.83147 0
3.48725 -0.83147 0.693657
3.38268 -0.92388 0
3.31769 -0.92388 0.659929
3.48725 -0.83147 0.693657
3.28492 -0.83147 1.36066
3.31769 -0.92388 0.659929
3.12519 -0.92388 1.2945
2.62132 -0.707107 2.62132
2.05956 -0.707107 3.08235
2.51417 -0.83147 2.51417
[...]
POINT_DATA 9796
SCALARS U double 1
LOOKUP_TABLE default
0.0045664 0.00511918 0.00406845 0.00497428 0.00339941 0.00436901 0.00398331 0.00460402 0.00318433 0.00398331 0.00396835 0.00439404 0.00398331 0.00460402 0.00439404 0.00497009 0.00265972 0.003987 0.00339941 0.00436901 0.00160924 0.00265347 0.000959492 0.00204495 0.00511918 0.00565617 0.00497428 0.00493546 0.00565617 0.00573865 0.00493546 0.00531119 0.00436901 0.00456921 0.00460402 0.005164 0.00460402 0.005164 0.00497009 0.00578498 0.005164 0.00525754 0.00578498 0.00579805 0.00160312 0.00361088 0.00169983 0.00341991 0.00421193 0.00422788 0.00375573 0.00423831 0.0017036 0.00366938 0.00160312 0.00361088 0.00554044 0.00633459 0.00533464 0.00613272 0.00633459 0.00621653 0.00613272 0.00604899 0.00533464 0.00613272 0.00511918 0.00565617 0.00497918 0.00554044 0.00487646 0.00533464 0.00487646 0.00533464 0.0045664 0.00511918 0.00341991 0.00430372 0.00352144 0.00440971 0.00544208 0.00486839 0.00502561 0.00417433 0.00330676 0.00469939 0.0032587 0.00455871 0.0032587 0.00455871 0.00306187 0.0041132 0.00306187 0.0041132 0.00266395 0.00337503 0.00266395 0.00337503 0.00198355 0.00247629 0.00103698 0.000445437 0.00112904 0.000661391 0.00164934 0.00233273 0.00228416 0.00318433 0.00215789 0.00228416 0.00252225 0.00285486 0.00228416 0.00318433 0.00285486 0.00396835 0.00319284 0.00452091 0.00330676 0.00469939 0.00108142 0.00154273 0.00164934 0.00233273 0.00396835 0.00439404 0.00452091 0.00478492 0.00439404 0.00497009 0.00478492 0.00540845 0.00478492 0.00540845 0.00497918 0.00554044 0.00497009 0.00578498 0.00540845 0.00622959 0.00578498 0.00579805 0.00622959 0.00615856 0.00438237 0.00492503 0.00438627 0.00483497 0.00492503 0.00603036 0.00483497 0.00589303 0.00438627 0.00483497 0.00434463 0.00477895 0.00483497 0.00589303 0.00477895 0.00562536 0.0041132 0.00433024 0.00374412 0.00404829 0.00433024 0.0045664 0.00404829 0.00431742 0.00374412 0.00404829 0.00337503 0.00371231 0.00404829 0.00431742 0.00371231 0.00406845 0.00337503 0.00371231 0.00292566 0.00333316 0.00371231 0.00406845 0.00333316 0.00374234 0.00292566 0.00333316 0.00247629 0.00293356 0.00333316 0.00374234 0.00293356 0.00340088 0.00406845 0.00452137 0.00374234 0.00428056 0.00452137 0.00497428 0.00428056 0.00486914 0.00374234 0.00428056 0.00340088 0.00399759 0.00233273 0.00308278 0.00275853 0.00339036 0.00308278 0.00339941 0.00339036 0.00369136 0.00275853 0.00339036 0.00318433 0.00358382 0.00339036 0.00369136 0.00358382 0.00398331 0.00432728 0.00484753 0.00447452 0.00482869 0.00484753 0.00523193 0.00482869 0.00555063 0.00447452 0.00482869 0.00471689 0.00500487 0.00482869 0.00555063 0.00500487 0.00587381 0.00434463 0.00477895 0.00424381 0.00473689 0.00477895 0.00562536 0.00473689 0.0054968 0.00424381 0.00473689 0.00411605 0.00463729 0.00473689 0.0054968 0.00463729 0.00545235 0.00191361 0.00324333 0.00212495 0.00326314 0.00324333 0.00391812 0.00326314 0.00390354 0.00212495 0.00326314 0.00250217 0.00333228 0.00326314 0.00390354 0.00333228 0.0037494 0.0020286 0.00288543 0.00231056 0.00308486 0.00288543 0.00352144 0.00308486 0.00374024 0.00231056 0.00308486 0.00265972 0.00332336 0.00308486 0.00374024 0.00332336 0.003987 0.00343718 0.00377679 0.00332826 0.00383208 0.00332826 0.00383208 0.00324333 0.00391812 0.00154273 0.00227857 0.00193773 0.0026918 0.00227857 0.00265972 0.0026918 0.00302957 0.00193773 0.0026918 0.00233273 0.00308278 0.0026918 0.00302957 0.00308278 0.00339941 0.00466991 0.00497092 0.00485256 0.00504328 0.00485256 0.00504328 0.00484753 0.00523193 0.00497428 0.00495487 0.00486914 0.00475436 0.00495487 0.00493546 0.00475436 0.0045855 0.00486914 0.00475436 0.00469864 0.00456687 0.00475436 0.0045855 0.00456687 0.00435228 0.00247629 0.00293356 0.00203985 0.00253031 0.00293356 0.00340088 0.00253031 0.00303277 0.00203985 0.00253031 0.00160924 0.00213136 0.00253031 0.00303277 0.00213136 0.00265347 0.00474023 0.00523474 0.00447954 0.00505094 0.00523474 0.00601295 0.00505094 0.00600651 0.00447954 0.00505094 0.00438237 0.00492503 0.00505094 0.00600651 0.00492503 0.00603036 0.00340088 0.00399759 0.00303277 0.00371775 0.00303277 0.00371775 0.00265347 0.00344927 0.00371775 0.00447644 0.00344927 0.00421193 0.00265347 0.00344927 0.00234921 0.00318873 0.00344927 0.00421193 0.00318873 0.00398383 0.00234921 0.00318873 0.00204495 0.00297475 0.00318873 0.00398383 0.00297475 0.00375573 0.00217499 0.00207684 0.00227877 0.00194479 0.0012246 0.00192196 0.00154273 0.00227857 0.00192196 0.00231056 0.00227857 0.00265972 0.00352144 0.00396557 0.00374024 0.00406339 0.00396557 0.00440971 0.00406339 0.00436106 0.00374024 0.00406339 0.003987 0.00416397 0.00406339 0.00436106 0.00416397 0.00433731 0.00526958 0.00599601 0.00536431 0.00601717 0.00536431 0.00601717 0.00523474 0.00601295 0.00500487 0.00587381 0.00522527 0.00602754 0.00522527 0.00602754 0.0052133 0.00604082 0.00481916 0.0052133 0.0047543 0.0051761 0.0052133 0.00604082 0.0051761 0.00598666 0.0047543 0.0051761 0.00486063 0.00526958 0.0051761 0.00598666 0.00526958 0.00599601 0.00493546 0.00512333 0.0045855 0.0049665 0.00512333 0.00531119 0.0049665 0.00504435 0.000532004 0.00146734 0.000553485 0.00146235 0.00146734 0.00160312 0.00146235 0.00165148 0.000553485 0.00146235 0.00062513 0.0014762 0.00146235 0.00165148 0.0014762 0.00169983 0.00062513 0.0014762 0.000749202 0.00153026 0.0014762 0.00169983 0.00153026 0.00182807 0.000749202 0.00153026 0.000941207 0.00167424 0.00153026 0.00182807 0.00167424 0.0020286 0.00391812 0.00439101 0.00390354 0.00434593 0.00439101 0.00464092 0.00434593 0.00470364 0.00390354 0.00434593 0.0037494 0.00433386 0.00434593 0.00470364 0.00433386 0.00477308 0.00169983 0.00255987 0.00182807 0.00270762 0.00255987 0.00341991 0.00270762 0.00347068 0.00182807 0.00270762 0.0020286 0.00288543 0.00270762 0.00347068 0.00288543 0.00352144 0.0037494 0.00433386 0.00361286 0.00433336 0.00433386 0.00477308 0.00433336 0.00483648 0.00361286 0.00433336 0.0036601 0.00434096 0.00433336 0.00483648 0.00434096 0.00488973 0.00456921 0.00478203 0.00486661 0.00500944 0.00478203 0.0047326 0.00500944 0.00497073 0.00486661 0.00500944 0.005164 0.00521077 0.00500944 0.00497073 0.00521077 0.00525754 0.0036601 0.00434096 0.0038479 0.00444005 0.00434096 0.00488973 0.00444005 0.00493299 0.0038479 0.00444005 0.00405829 0.00466991 0.00444005 0.00493299 0.00466991 0.00497092 0.003987 0.00416397 0.00417801 0.00431097 0.00416397 0.00433731 0.00431097 0.00442618 0.00417801 0.00431097 0.00436901 0.00446911 0.00431097 0.00442618 0.00446911 0.00456921 0.00454455 0.00401603 0.00431239 0.00381945 0.00401603 0.00346968 0.00381945 0.0031374 0.00431239 0.00381945 0.00412715 0.00368538 0.00381945 0.0031374 0.00368538 0.00286489 0.000959492 0.00150222 0.000759427 0.00150652 0.00150222 0.00204495 0.00150652 0.00183151 0.000759427 0.00150652 0.000627546 0.00148432 0.00150652 0.00183151 0.00148432 0.0017036 0.00204495 0.00297475 0.00183151 0.00280175 0.00183151 0.00280175 0.0017036 0.00268649 0.00280175 0.00366505 0.00268649 0.00366938 0.000627546 0.00148432 0.000555014 0.00146419 0.00148432 0.0017036 0.00146419 0.00165336 0.000555014 0.00146419 0.000532004 0.00146734 0.00146419 0.00165336 0.00146734 0.00160312 0.00613272 0.00609086 0.00589445 0.0059213 0.00609086 0.00604899 0.0059213 0.00589385 0.00589445 0.0059213 0.00565617 0.00569741 0.0059213 0.00589385 0.00569741 0.00573865 0.00469939 0.00483177 0.00462905 0.00481062 0.00483177 0.00497918 0.00481062 0.00492782 0.00462905 0.00481062 0.00455871 0.00471367 0.00481062 0.00492782 0.00471367 0.00487646 0.00411605 0.00463729 0.00395072 0.00449582 0.00463729 0.00545235 0.00449582 0.00530658 0.00395072 0.00449582 0.00376281 0.00441347 0.00449582 0.00530658 0.00441347 0.0050828 0.00433731 0.00436761 0.00442618 0.00454675 0.00442618 0.00454675 0.00456921 0.00478203 0.00423769 0.00455115 0.00422788 0.00437302 0.00377679 0.0044765 0.00383208 0.00444745 0.0044765 0.00455899 0.00444745 0.00459226 0.00383208 0.00444745 0.00391812 0.00439101 0.00444745 0.00459226 0.00439101 0.00464092 0.00455899 0.00348364 0.00459226 0.00347292 0.00455871 0.00471367 0.00433596 0.00455525 0.00471367 0.00487646 0.00455525 0.00472143 0.00433596 0.00455525 0.0041132 0.00433024 0.00455525 0.00472143 0.00433024 0.0045664 0.00366938 0.0038755 0.00364013 0.00384176 0.0038755 0.00404176 0.00384176 0.00401289 0.00364013 0.00384176 0.00361088 0.00383977 0.00384176 0.00401289 0.00383977 0.00403228 0.00375573 0.00399702 0.00366505 0.00396571 0.00399702 0.00423831 0.00396571 0.00413775 0.00366505 0.00396571 0.00366938 0.0038755 0.00396571 0.00413775 0.0038755 0.00404176 0.00414219 0.00368712 0.00434706 0.00378841 0.00434706 0.00378841 0.00458616 0.00392441 0.00338281 0.00356923 0.00340176 0.00360995 0.00340176 0.00360995 0.00345845 0.00368369 0.00376281 0.00441347 0.00361471 0.00440182 0.00441347 0.0050828 0.00440182 0.00491572 0.00361471 0.00440182 0.00356923 0.0043971 0.00440182 0.00491572 0.0043971 0.00480874 0.00186468 0.00221373 0.0018548 0.00214824 0.00221373 0.00220138 0.00214824 0.00223436 0.0018548 0.00214824 0.0017701 0.00217499 0.00214824 0.00223436 0.00217499 0.00207684 0.00621653 0.00590423 0.00613276 0.00584698 0.00590423 0.00560677 0.00584698 0.00554844 0.00613276 0.00584698 0.00604899 0.00574038 0.00584698 0.00554844 0.00574038 0.00544208 0.00361088 0.00383977 0.0035154 0.00387817 0.0035154 0.00387817 0.00341991 0.00386181 0.00387817 0.00414646 0.00386181 0.00430372 0.00604899 0.00574038 0.00589385 0.00558504 0.00574038 0.00544208 0.00558504 0.00523385 0.00589385 0.00558504 0.00573865 0.00538009 0.00558504 0.00523385 0.00538009 0.00502561 0.00404176 0.00386738 0.00401289 0.0038189 0.00502561 0.00459997 0.00478706 0.00429326 0.00459997 0.00417433 0.00429326 0.00382446 0.00478706 0.00429326 0.00454455 0.00401603 0.00429326 0.00382446 0.00401603 0.00346968 0.00458616 0.00392441 0.00484757 0.00410821 0.00484757 0.00410821 0.00510202 0.00434179 0.00573865 0.00538009 0.00552492 0.00509639 0.00538009 0.00502561 0.00509639 0.00478706 0.00552492 0.00509639 0.00531119 0.00475461 0.00509639 0.00478706 0.00475461 0.00454455 0.00510202 0.00434179 0.00530049 0.00463967 0.00434179 0.00358677 0.00463967 0.00399972 0.00530049 0.00463967 0.00546762 0.0049708 0.00463967 0.00399972 0.0049708 0.00448679 0.00413458 0.00326815 0.00411248 0.00329696 0.00326815 0.00373077 0.00329696 0.00365726 0.00329696 0.00365726 0.00333392 0.00350803 0.00531119 0.00475461 0.00504435 0.00440386 0.00475461 0.00454455 0.00440386 0.00431239 0.00504435 0.00440386 0.00479091 0.00405747 0.00440386 0.00431239 0.00405747 0.00412715 0.00365726 0.00355437 0.00350803 0.00344897 0.00440971 0.00409256 0.00436106 0.00420896 0.00409256 0.00421456 0.00420896 0.00430278 0.00436106 0.00420896 0.00433731 0.00436761 0.00420896 0.00430278 0.00436761 0.00441668 0.00525754 0.00489612 0.00552779 0.00520578 0.00489612 0.00458616 0.00520578 0.00484757 0.00552779 0.00520578 0.00579805 0.00545835 0.00520578 0.00484757 0.00545835 0.00510202 0.00469864 0.00456687 0.00447644 0.00439599 0.00456687 0.00435228 0.00439599 0.00423769 0.00447644 0.00439599 0.00421193 0.0042199 0.00439599 0.00423769 0.0042199 0.00422788 0.00333392 0.00350803 0.00335008 0.00341957 0.00422788 0.00437302 0.0042331 0.00420663 0.00437302 0.00445298 0.00420663 0.00433867 0.0042331 0.00420663 0.00423831 0.00406469 0.00420663 0.00433867 0.00406469 0.00425908 0.00356923 0.0043971 0.00360995 0.00439859 0.0043971 0.00480874 0.00439859 0.00472605 0.00360995 0.00439859 0.00368369 0.0044233 0.00439859 0.00472605 0.0044233 0.00465413 0.00340324 0.00357382 0.00335631 0.00351126 0.002823 0.00330676 0.00286005 0.00328273 0.00286005 0.00328273 0.00293052 0.0032587 0.00357158 0.00347371 0.00369306 0.00357303 0.00504886 0.00542881 0.00482219 0.00525036 0.00486839 0.00482219 0.00452136 0.0045681 0.00482219 0.00525036 0.0045681 0.00504946 0.00452136 0.0045681 0.00417433 0.00432647 0.0045681 0.00504946 0.00432647 0.00482845 0.00330524 0.00357158 0.00326969 0.00369306 0.00414156 0.00326969 0.00413458 0.00326815 0.00326969 0.00369306 0.00326815 0.00373077 0.00368369 0.0044233 0.00372834 0.00446118 0.0044233 0.00465413 0.00446118 0.00459758 0.00372834 0.00446118 0.00377679 0.0044765 0.00446118 0.00459758 0.0044765 0.00455899 0.00417433 0.00432647 0.00382446 0.00403633 0.00432647 0.00482845 0.00403633 0.00447098 0.00382446 0.00403633 0.00346968 0.00366745 0.00448679 0.00453646 0.00491024 0.00490423 0.00453646 0.0051302 0.00490423 0.00537893 0.00220138 0.00345845 0.00223436 0.00350883 0.00223436 0.00350883 0.00207684 0.00343718 0.00488994 0.00297454 0.00501635 0.00301968 0.00297454 0.000952808 0.00301968 0.000941927 0.00501635 0.00301968 0.00408131 0.00296501 0.00301968 0.000941927 0.00296501 0.00103698 0.00408065 0.00294385 0.00502144 0.00301688 0.00294385 0.00100565 0.00301688 0.000950276 0.00502144 0.00301688 0.00488994 0.00297454 0.00301688 0.000950276 0.00297454 0.000952808 0.00459758 0.00348689 0.00455899 0.00348364 0.00558991 0.00515803 0.00552192 0.00514756 0.00515803 0.00486063 0.00514756 0.00496161 0.00552192 0.00514756 0.00521747 0.00492374 0.00514756 0.00496161 0.00492374 0.00474023 0.00560677 0.00540084 0.00554844 0.00535356 0.00540084 0.00515158 0.00535356 0.00511471 0.00554844 0.00535356 0.00544208 0.00515524 0.00535356 0.00511471 0.00515524 0.00486839 0.00546762 0.0049708 0.00556196 0.00526035 0.0049708 0.00448679 0.00526035 0.00491024 0.00556196 0.00526035 0.00560677 0.00540084 0.00526035 0.00491024 0.00540084 0.00515158 0.00549749 0.00575517 0.00542881 0.0057395 0.00575517 0.00575391 0.0057395 0.00571386 0.00542881 0.0057395 0.00525036 0.00565907 0.0057395 0.00571386 0.00565907 0.00562552 0.00518497 0.00466636 0.00562847 0.00507936 0.00466636 0.00432728 0.00507936 0.00447452 0.00562847 0.00507936 0.00588475 0.00533127 0.00507936 0.00447452 0.00533127 0.00471689 0.00588475 0.00533127 0.00587443 0.00534614 0.00533127 0.00471689 0.00534614 0.00491137 0.00587443 0.00534614 0.00570078 0.00521341 0.00534614 0.00491137 0.00521341 0.00481916 0.000952808 0.000751933 0.000941927 0.000768505 0.000751933 0.000362591 0.000768505 0.000365347 0.000941927 0.000768505 0.00103698 0.000741206 0.000768505 0.000365347 0.000741206 0.000445437 0.00352901 0.00377598 0.00404528 0.00406722 0.00377598 0.0036601 0.00406722 0.0038479 0.00404528 0.00406722 0.00446252 0.00422615 0.00406722 0.0038479 0.00422615 0.00405829 0.000868749 0.000682379 0.00081313 0.000511278 0.00103272 0.00081313 0.00100565 0.000773425 0.00081313 0.000511278 0.000773425 0.000420342 0.00100565 0.000773425 0.000950276 0.000765712 0.000773425 0.000420342 0.000765712 0.000373671 0.000950276 0.000765712 0.000952808 0.000751933 0.000765712 0.000373671 0.000751933 0.000362591 0.00525036 0.00565907 0.00504946 0.00550308 0.00565907 0.00562552 0.00550308 0.00545716 0.00504946 0.00550308 0.00482845 0.00520022 0.00550308 0.00545716 0.00520022 0.00513451 0.00283466 0.00371064 0.0024442 0.00302312 0.00371064 0.00388138 0.00302312 0.0033379 0.0024442 0.00302312 0.00218185 0.00250738 0.00302312 0.0033379 0.00250738 0.00277025 0.00482845 0.00520022 0.00447098 0.00466862 0.00466862 0.00462201 0.00395921 0.00399238 0.00289629 0.00319284 0.00285379 0.0032498 0.00285379 0.0032498 0.002823 0.00330676 0.00388138 0.00403842 0.0033379 0.00383048 0.00403842 0.00411605 0.00383048 0.00395072 0.0033379 0.00383048 0.00277025 0.0035893 0.00383048 0.00395072 0.0035893 0.00376281 0.00218185 0.00250738 0.00202069 0.00224557 0.00250738 0.00277025 0.00224557 0.00239234 0.00202069 0.00224557 0.00191824 0.00220709 0.00224557 0.00239234 0.00220709 0.00219944 0.00579805 0.00545835 0.0059783 0.00566253 0.00545835 0.00510202 0.00566253 0.00530049 0.0059783 0.00566253 0.00615856 0.00581371 0.00566253 0.00530049 0.00581371 0.00546762 0.0050318 0.00582528 0.00503974 0.00573393 0.00346968 0.00366745 0.0031374 0.00327877 0.00366745 0.00392201 0.00327877 0.00331678 0.0031374 0.00327877 0.00286489 0.00296008 0.00327877 0.00331678 0.00296008 0.0028092 0.00382698 0.00413458 0.00385992 0.00411248 0.00414646 0.00385992 0.00430372 0.00392152 0.00385992 0.00411248 0.00392152 0.00410547 0.00430372 0.00392152 0.00435671 0.00400905 0.00392152 0.00410547 0.00400905 0.00413931 0.00435671 0.00400905 0.00440971 0.00409256 0.00423831 0.00406469 0.00413775 0.00395298 0.00413775 0.00395298 0.00404176 0.00386738 0.00395298 0.00419413 0.00386738 0.00415786 0.00133176 0.0012301 0.00103793 0.000940872 0.00103793 0.000940872 0.000868749 0.000682379 0.00281498 0.00298066 0.00293819 0.00311021 0.00298066 0.00350679 0.00311021 0.00359583 0.00293819 0.00311021 0.00309219 0.00324922 0.00311021 0.00359583 0.00324922 0.00383063 0.0047326 0.00406717 0.00497073 0.00447392 0.00406717 0.00414219 0.00447392 0.00434706 0.00497073 0.00447392 0.00525754 0.00489612 0.00447392 0.00434706 0.00489612 0.00458616 0.00615856 0.00581371 0.00619152 0.00588768 0.00581371 0.00546762 0.00588768 0.00556196 0.00619152 0.00588768 0.00621653 0.00590423 0.00588768 0.00556196 0.00590423 0.00560677 0.00256904 0.00293052 0.00271482 0.00287952 0.00293052 0.0032587 0.00287952 0.00316029 0.00271482 0.00287952 0.00263844 0.0028022 0.00287952 0.00316029 0.0028022 0.00306187 0.00566458 0.00384701 0.00582528 0.00397267 0.00384701 0.00255616 0.00397267 0.00248445 0.00582528 0.00397267 0.00573393 0.00378739 0.00397267 0.00248445 0.00378739 0.00256904 0.00309219 0.00324922 0.00329776 0.00343661 0.00324922 0.00383063 0.00343661 0.00413788 0.00329776 0.00343661 0.00358677 0.00370973 0.00343661 0.00413788 0.00370973 0.00448085 0.00350803 0.00344897 0.00341957 0.00337697 0.00341957 0.00337697 0.00347487 0.00339235 0.00421456 0.00336255 0.00430278 0.00342 0.00336255 0.00347487 0.00342 0.00362251 0.00430278 0.00342 0.00441668 0.00354274 0.00342 0.00362251 0.00354274 0.00379963 0.00354274 0.00379963 0.00376044 0.00396302 0.00376044 0.00396302 0.00406717 0.00414219 0.00405747 0.00412715 0.00376395 0.00396795 0.00376395 0.00396795 0.00356163 0.00383212 0.00445298 0.00356163 0.00433867 0.00345824 0.00356163 0.00383212 0.00345824 0.00369246 0.00433867 0.00345824 0.00425908 0.00340324 0.00345824 0.00369246 0.00340324 0.00357382 0.00383063 0.00415437 0.00413788 0.0046902 0.00415437 0.00414166 0.0046902 0.00469779 0.00413788 0.0046902 0.00448085 0.00517428 0.0046902 0.00469779 0.00517428 0.00518223 0.00358677 0.00370973 0.00399972 0.00409041 0.00370973 0.00448085 0.00409041 0.00481964 0.00399972 0.00409041 0.00448679 0.00453646 0.00409041 0.00481964 0.00453646 0.0051302 0.00492347 0.00310444 0.00488252 0.00316022 0.00310444 0.0016158 0.00316022 0.00183339 0.00488252 0.00316022 0.00491574 0.00317807 0.00316022 0.00183339 0.00317807 0.00215789 0.000362591 0.000282783 0.000365347 0.000302071 0.000282783 0.000532004 0.000302071 0.000553485 0.000365347 0.000302071 0.000445437 0.000358925 0.000302071 0.000553485 0.000358925 0.00062513 0.00357382 0.00339592 0.00351126 0.00339578 0.00351126 0.00339578 0.00357158 0.00347371 0.000445437 0.000358925 0.000553414 0.00050359 0.000553414 0.00050359 0.000661391 0.000757561 0.00448085 0.00517428 0.00481964 0.00548589 0.00517428 0.00518223 0.00548589 0.00550679 0.00548589 0.00550679 0.00564299 0.00567389 0.000682379 0.000794803 0.000511278 0.000533072 0.000511278 0.000533072 0.000420342 0.000371677 0.0051302 0.00564299 0.00537893 0.0057228 0.00564299 0.00567389 0.0057228 0.00574054 0.00537893 0.0057228 0.00549749 0.00575517 0.0057228 0.00574054 0.00575517 0.00575391 0.000420342 0.000371677 0.000373671 0.000301522 0.000371677 0.000627546 0.000301522 0.000555014 0.000373671 0.000301522 0.000362591 0.000282783 0.000301522 0.000555014 0.000282783 0.000532004 0.00272415 0.00268384 0.00272288 0.00269216 0.00268384 0.00215867 0.00269216 0.00218221 0.00272288 0.00269216 0.00270271 0.00269469 0.00269216 0.00218221 0.00269469 0.00225457 0.00296501 0.00103698 0.00289086 0.00108301 0.00289086 0.00108301 0.00295883 0.00112904 0.00423888 0.00295883 0.00415408 0.00299839 0.00295883 0.00112904 0.00299839 0.0011521 0.00299839 0.0011521 0.00289712 0.00129919 0.00439047 0.00307568 0.00492347 0.00310444 0.00215867 0.00260171 0.00218221 0.0026261 0.00260171 0.0017701 0.0026