# vtk DataFile Version 3.0
#This file was generated by the deal.II library on 2023/3/1 at 4:17:00
ASCII
DATASET UNSTRUCTURED_GRID

FIELD FieldData 2
CYCLE 1 1 int
34
TIME 1 1 double
0.068
POINTS 3580 double
2 0 0
1.41421 1.22465e-16 1.41421
2.29289 0.707107 0
1.62132 0.707107 1.62132
2.29289 -0.707107 0
1.62132 -0.707107 1.62132
2 0 0
1.41421 1.22465e-16 1.41421
0 0 -2
1.41421 1.22465e-16 -1.41421
-4.21198e-16 0.707107 -2.29289
1.62132 0.707107 -1.62132
1.41421 1.22465e-16 -1.41421
2 0 0
1.62132 0.707107 -1.62132
2.29289 0.707107 0
-4.21198e-16 0.707107 -2.29289
1.62132 0.707107 -1.62132
0 1 -3
2.12132 1 -2.12132
1.62132 0.707107 -1.62132
2.29289 0.707107 0
2.12132 1 -2.12132
3 1 0
0 -1 -3
2.12132 -1 -2.12132
-4.21198e-16 -0.707107 -2.29289
1.62132 -0.707107 -1.62132
2.12132 -1 -2.12132
3 -1 0
1.62132 -0.707107 -1.62132
2.29289 -0.707107 0
-4.21198e-16 -0.707107 -2.29289
1.62132 -0.707107 -1.62132
0 0 -2
1.41421 1.22465e-16 -1.41421
1.62132 -0.707107 -1.62132
2.29289 -0.707107 0
1.41421 1.22465e-16 -1.41421
2 0 0
0 0 -4
2.82843 0 -2.82843
-6.80984e-16 -0.707107 -3.70711
2.62132 -0.707107 -2.62132
2.82843 0 -2.82843
4 0 0
2.62132 -0.707107 -2.62132
3.70711 -0.707107 0
-6.80984e-16 -0.707107 -3.70711
2.62132 -0.707107 -2.62132
0 -1 -3
2.12132 -1 -2.12132
2.62132 -0.707107 -2.62132
3.70711 -0.707107 0
2.12132 -1 -2.12132
3 -1 0
0 1 -3
2.12132 1 -2.12132
-6.80984e-16 0.707107 -3.70711
2.62132 0.707107 -2.62132
2.12132 1 -2.12132
3 1 0
2.62132 0.707107 -2.62132
3.70711 0.707107 0
-6.80984e-16 0.707107 -3.70711
2.62132 0.707107 -2.62132
0 0 -4
2.82843 0 -2.82843
2.62132 0.707107 -2.62132
3.70711 0.707107 0
2.82843 0 -2.82843
4 0 0
2.29289 0.707107 0
2.11836 0.707107 0.877452
2.61732 0.92388 0
2.41809 0.92388 1.0016
2.11836 0.707107 0.877452
1.62132 0.707107 1.62132
2.41809 0.92388 1.0016
1.85072 0.92388 1.85072
2.61732 0.92388 0
2.41809 0.92388 1.0016
3 1 0
2.77164 1 1.14805
2.41809 0.92388 1.0016
1.85072 0.92388 1.85072
2.77164 1 1.14805
2.12132 1 2.12132
3 -1 0
2.77164 -1 1.14805
2.61732 -0.92388 0
2.41809 -0.92388 1.0016
2.77164 -1 1.14805
2.12132 -1 2.12132
2.41809 -0.92388 1.0016
1.85072 -0.92388 1.85072
2.61732 -0.92388 0
2.41809 -0.92388 1.0016
2.29289 -0.707107 0
2.11836 -0.707107 0.877452
2.41809 -0.92388 1.0016
1.85072 -0.92388 1.85072
2.11836 -0.707107 0.877452
1.62132 -0.707107 1.62132
-1.62132 0.707107 -1.62132
-0.877452 0.707107 -2.11836
-1.85072 0.92388 -1.85072
-1.0016 0.92388 -2.41809
-0.877452 0.707107 -2.11836
-4.21198e-16 0.707107 -2.29289
-1.0016 0.92388 -2.41809
-4.80793e-16 0.92388 -2.61732
-1.85072 0.92388 -1.85072
-1.0016 0.92388 -2.41809
-2.12132 1 -2.12132
-1.14805 1 -2.77164
-1.0016 0.92388 -2.41809
-4.80793e-16 0.92388 -2.61732
-1.14805 1 -2.77164
0 1 -3
3.70711 -0.707107 0
3.42492 -0.707107 1.41865
3.38268 -0.92388 0
3.12519 -0.92388 1.2945
3.38268 -0.92388 0
3.12519 -0.92388 1.2945
3 -1 0
2.77164 -1 1.14805
3.12519 -0.92388 1.2945
2.39192 -0.92388 2.39192
2.77164 -1 1.14805
2.12132 -1 2.12132
3 1 0
2.77164 1 1.14805
3.38268 0.92388 0
3.12519 0.92388 1.2945
2.77164 1 1.14805
2.12132 1 2.12132
3.12519 0.92388 1.2945
2.39192 0.92388 2.39192
3.38268 0.92388 0
3.12519 0.92388 1.2945
3.70711 0.707107 0
3.42492 0.707107 1.41865
-2.12132 -1 -2.12132
-1.14805 -1 -2.77164
-1.85072 -0.92388 -1.85072
-1.0016 -0.92388 -2.41809
-1.14805 -1 -2.77164
0 -1 -3
-1.0016 -0.92388 -2.41809
-4.80793e-16 -0.92388 -2.61732
-1.85072 -0.92388 -1.85072
-1.0016 -0.92388 -2.41809
-1.62132 -0.707107 -1.62132
-0.877452 -0.707107 -2.11836
-1.0016 -0.92388 -2.41809
-4.80793e-16 -0.92388 -2.61732
-0.877452 -0.707107 -2.11836
-4.21198e-16 -0.707107 -2.29289
1.62132 0.707107 1.62132
0.877452 0.707107 2.11836
1.85072 0.92388 1.85072
1.0016 0.92388 2.41809
1.85072 0.92388 1.85072
1.0016 0.92388 2.41809
2.12132 1 2.12132
1.14805 1 2.77164
-4 0 0
-3.69552 0 -1.53073
-3.92388 -0.382683 4.80537e-16
-3.62519 -0.382683 -1.5016
-3.69552 0 -1.53073
-2.82843 0 -2.82843
-3.62519 -0.382683 -1.5016
-2.7746 -0.382683 -2.7746
-3.92388 -0.382683 4.80537e-16
-3.62519 -0.382683 -1.5016
-3.70711 -0.707107 4.5399e-16
-3.42492 -0.707107 -1.41865
-3.62519 -0.382683 -1.5016
-2.7746 -0.382683 -2.7746
-3.42492 -0.707107 -1.41865
-2.62132 -0.707107 -2.62132
2.12132 -1 2.12132
1.14805 -1 2.77164
1.85072 -0.92388 1.85072
1.0016 -0.92388 2.41809
1.85072 -0.92388 1.85072
1.0016 -0.92388 2.41809
1.62132 -0.707107 1.62132
0.877452 -0.707107 2.11836
-0.765367 1.22465e-16 -1.84776
0 0 -2
-0.794497 0.382683 -1.91809
-3.81377e-16 0.382683 -2.07612
-0.794497 0.382683 -1.91809
-3.81377e-16 0.382683 -2.07612
-0.877452 0.707107 -2.11836
-4.21198e-16 0.707107 -2.29289
-0.877452 -0.707107 -2.11836
-4.21198e-16 -0.707107 -2.29289
-0.794497 -0.382683 -1.91809
-3.81377e-16 -0.382683 -2.07612
-0.794497 -0.382683 -1.91809
-3.81377e-16 -0.382683 -2.07612
-0.765367 1.22465e-16 -1.84776
0 0 -2
-2.82843 0 -2.82843
-1.53073 0 -3.69552
-2.7746 -0.382683 -2.7746
-1.5016 -0.382683 -3.62519
-1.53073 0 -3.69552
0 0 -4
-1.5016 -0.382683 -3.62519
-7.20805e-16 -0.382683 -3.92388
-2.7746 -0.382683 -2.7746
-1.5016 -0.382683 -3.62519
-2.62132 -0.707107 -2.62132
-1.41865 -0.707107 -3.42492
-1.5016 -0.382683 -3.62519
-7.20805e-16 -0.382683 -3.92388
-1.41865 -0.707107 -3.42492
-6.80984e-16 -0.707107 -3.70711
4 0 0
3.69552 0 1.53073
3.92388 -0.382683 0
3.62519 -0.382683 1.5016
3.92388 -0.382683 0
3.62519 -0.382683 1.5016
3.70711 -0.707107 0
3.42492 -0.707107 1.41865
2.62132 -0.707107 2.62132
1.41865 -0.707107 3.42492
2.39192 -0.92388 2.39192
1.2945 -0.92388 3.12519
2.39192 -0.92388 2.39192
1.2945 -0.92388 3.12519
2.12132 -1 2.12132
1.14805 -1 2.77164
2.12132 1 2.12132
1.14805 1 2.77164
2.39192 0.92388 2.39192
1.2945 0.92388 3.12519
2.39192 0.92388 2.39192
1.2945 0.92388 3.12519
2.62132 0.707107 2.62132
1.41865 0.707107 3.42492
3.70711 0.707107 0
3.42492 0.707107 1.41865
3.92388 0.382683 0
3.62519 0.382683 1.5016
3.92388 0.382683 0
3.62519 0.382683 1.5016
4 0 0
3.69552 0 1.53073
-2.62132 -0.707107 -2.62132
-1.41865 -0.707107 -3.42492
-2.39192 -0.92388 -2.39192
-1.2945 -0.92388 -3.12519
-1.41865 -0.707107 -3.42492
-6.80984e-16 -0.707107 -3.70711
-1.2945 -0.92388 -3.12519
-6.21389e-16 -0.92388 -3.38268
-2.39192 -0.92388 -2.39192
-1.2945 -0.92388 -3.12519
-2.12132 -1 -2.12132
-1.14805 -1 -2.77164
-1.2945 -0.92388 -3.12519
-6.21389e-16 -0.92388 -3.38268
-1.14805 -1 -2.77164
0 -1 -3
-2.12132 1 -2.12132
-1.14805 1 -2.77164
-2.39192 0.92388 -2.39192
-1.2945 0.92388 -3.12519
-1.14805 1 -2.77164
0 1 -3
-1.2945 0.92388 -3.12519
-6.21389e-16 0.92388 -3.38268
-2.39192 0.92388 -2.39192
-1.2945 0.92388 -3.12519
-2.62132 0.707107 -2.62132
-1.41865 0.707107 -3.42492
-1.2945 0.92388 -3.12519
-6.21389e-16 0.92388 -3.38268
-1.41865 0.707107 -3.42492
-6.80984e-16 0.707107 -3.70711
-3.70711 0.707107 4.5399e-16
-3.42492 0.707107 -1.41865
-3.92388 0.382683 4.80537e-16
-3.62519 0.382683 -1.5016
-3.42492 0.707107 -1.41865
-2.62132 0.707107 -2.62132
-3.62519 0.382683 -1.5016
-2.7746 0.382683 -2.7746
-3.92388 0.382683 4.80537e-16
-3.62519 0.382683 -1.5016
-4 0 0
-3.69552 0 -1.53073
-3.62519 0.382683 -1.5016
-2.7746 0.382683 -2.7746
-3.69552 0 -1.53073
-2.82843 0 -2.82843
-2.62132 0.707107 -2.62132
-1.41865 0.707107 -3.42492
-2.7746 0.382683 -2.7746
-1.5016 0.382683 -3.62519
-1.41865 0.707107 -3.42492
-6.80984e-16 0.707107 -3.70711
-1.5016 0.382683 -3.62519
-7.20805e-16 0.382683 -3.92388
-2.7746 0.382683 -2.7746
-1.5016 0.382683 -3.62519
-2.82843 0 -2.82843
-1.53073 0 -3.69552
-1.5016 0.382683 -3.62519
-7.20805e-16 0.382683 -3.92388
-1.53073 0 -3.69552
0 0 -4
1.41421 1.22465e-16 1.41421
0.765367 1.22465e-16 1.84776
1.46804 0.382683 1.46804
0.794497 0.382683 1.91809
0.765367 1.22465e-16 1.84776
0 0 2
0.794497 0.382683 1.91809
1.27126e-16 0.382683 2.07612
1.46804 0.382683 1.46804
0.794497 0.382683 1.91809
1.62132 0.707107 1.62132
0.877452 0.707107 2.11836
1.62132 -0.707107 1.62132
0.877452 -0.707107 2.11836
1.46804 -0.382683 1.46804
0.794497 -0.382683 1.91809
1.46804 -0.382683 1.46804
0.794497 -0.382683 1.91809
1.41421 1.22465e-16 1.41421
0.765367 1.22465e-16 1.84776
0.794497 -0.382683 1.91809
1.27126e-16 -0.382683 2.07612
0.765367 1.22465e-16 1.84776
0 0 2
2.7746 -0.382683 2.7746
1.5016 -0.382683 3.62519
2.62132 -0.707107 2.62132
1.41865 -0.707107 3.42492
0 0 2
-0.765367 1.22465e-16 1.84776
1.27126e-16 0.382683 2.07612
-0.794497 0.382683 1.91809
-0.765367 1.22465e-16 1.84776
-1.41421 1.22465e-16 1.41421
-0.794497 0.382683 1.91809
-1.46804 0.382683 1.46804
1.27126e-16 0.382683 2.07612
-0.794497 0.382683 1.91809
1.40399e-16 0.707107 2.29289
-0.877452 0.707107 2.11836
-0.794497 0.382683 1.91809
-1.46804 0.382683 1.46804
-0.877452 0.707107 2.11836
-1.62132 0.707107 1.62132
-0.877452 0.707107 2.11836
-1.62132 0.707107 1.62132
-1.0016 0.92388 2.41809
-1.85072 0.92388 1.85072
-1.0016 0.92388 2.41809
-1.85072 0.92388 1.85072
-1.14805 1 2.77164
-2.12132 1 2.12132
-1.14805 -1 2.77164
-2.12132 -1 2.12132
-1.0016 -0.92388 2.41809
-1.85072 -0.92388 1.85072
-1.0016 -0.92388 2.41809
-1.85072 -0.92388 1.85072
-0.877452 -0.707107 2.11836
-1.62132 -0.707107 1.62132
1.40399e-16 -0.707107 2.29289
-0.877452 -0.707107 2.11836
1.27126e-16 -0.382683 2.07612
-0.794497 -0.382683 1.91809
-0.877452 -0.707107 2.11836
-1.62132 -0.707107 1.62132
-0.794497 -0.382683 1.91809
-1.46804 -0.382683 1.46804
1.27126e-16 -0.382683 2.07612
-0.794497 -0.382683 1.91809
0 0 2
-0.765367 1.22465e-16 1.84776
-0.794497 -0.382683 1.91809
-1.46804 -0.382683 1.46804
-0.765367 1.22465e-16 1.84776
-1.41421 1.22465e-16 1.41421
-2.82843 0 2.82843
-3.69552 0 1.53073
-2.7746 -0.382683 2.7746
-3.62519 -0.382683 1.5016
-3.69552 0 1.53073
-4 0 0
-3.62519 -0.382683 1.5016
-3.92388 -0.382683 4.80537e-16
-2.7746 -0.382683 2.7746
-3.62519 -0.382683 1.5016
-2.62132 -0.707107 2.62132
-3.42492 -0.707107 1.41865
-3.62519 -0.382683 1.5016
-3.92388 -0.382683 4.80537e-16
-3.42492 -0.707107 1.41865
-3.70711 -0.707107 4.5399e-16
-2.62132 0.707107 2.62132
-3.42492 0.707107 1.41865
-2.7746 0.382683 2.7746
-3.62519 0.382683 1.5016
-3.42492 0.707107 1.41865
-3.70711 0.707107 4.5399e-16
[...]
POINT_DATA 3580
SCALARS U double 1
LOOKUP_TABLE default
0.000812971 0.00190697 0.000761304 0.00147676 0.000761301 0.00147676 0.000812971 0.00190697 -0.000114743 3.31662e-05 -5.41522e-05 2.27401e-05 3.31662e-05 0.000812971 2.27401e-05 0.000761304 -5.41522e-05 2.27401e-05 0.000144564 -4.07936e-05 2.27401e-05 0.000761304 -4.07936e-05 0.000503463 0.000144566 -4.08014e-05 -5.41525e-05 2.27412e-05 -4.08014e-05 0.000503487 2.27412e-05 0.000761301 -5.41525e-05 2.27412e-05 -0.000114743 3.31662e-05 2.27412e-05 0.000761301 3.31662e-05 0.000812971 -0.000237087 8.12345e-05 -8.5063e-05 3.18994e-05 8.12345e-05 3.72556e-05 3.18994e-05 0.000255121 -8.5063e-05 3.18994e-05 0.000144566 -4.08014e-05 3.18994e-05 0.000255121 -4.08014e-05 0.000503487 0.000144564 -4.07936e-05 -8.50664e-05 3.19095e-05 -4.07936e-05 0.000503463 3.19095e-05 0.000255117 -8.50664e-05 3.19095e-05 -0.000237087 8.12345e-05 3.19095e-05 0.000255117 8.12345e-05 3.72556e-05 0.000761304 0.00111903 0.000632383 0.000863616 0.00111903 0.00147676 0.000863616 0.00146659 0.000632383 0.000863616 0.000503463 0.000641601 0.000863616 0.00146659 0.000641601 0.00156517 0.000503487 0.000641629 0.000632394 0.000863595 0.000641629 0.00156467 0.000863595 0.00146667 0.000632394 0.000863595 0.000761301 0.00111903 0.000863595 0.00146667 0.00111903 0.00147676 0.00175607 0.00044215 0.00238047 -9.89453e-05 0.00044215 -5.41522e-05 -9.89453e-05 4.52057e-05 0.00238047 -9.89453e-05 0.00222818 -0.000453424 -9.89453e-05 4.52057e-05 -0.000453424 0.000144564 0.000255121 0.000362155 0.000379304 0.000554558 0.000379304 0.000554558 0.000503487 0.000641629 0.000554558 0.00136884 0.000641629 0.00156467 0.000503463 0.000641601 0.00037929 0.000555447 0.000641601 0.00156517 0.000555447 0.00136618 0.00037929 0.000555447 0.000255117 0.000362523 0.00222818 -0.000453425 0.00238047 -9.89456e-05 -0.000453425 0.000144566 -9.89456e-05 4.52068e-05 0.00238047 -9.89456e-05 0.00175607 0.00044215 -9.89456e-05 4.52068e-05 0.00044215 -5.41525e-05 0.00147676 0.00161738 0.00146659 0.00106453 0.00146659 0.00106453 0.00156517 0.000737827 -0.000144838 -4.43376e-05 -0.000175003 -0.000147434 -4.43376e-05 0.00208865 -0.000147434 0.00180771 -0.000175003 -0.000147434 -0.000162254 -0.000270951 -0.000147434 0.00180771 -0.000270951 0.00213521 0.00156467 0.000737402 0.00146667 0.0010646 0.00146667 0.0010646 0.00147676 0.00161737 0.000491882 -0.000114743 0.000482344 -8.44476e-05 0.000482344 -8.44476e-05 0.00044215 -5.41522e-05 0.00044215 -5.41525e-05 0.000482344 -8.44477e-05 0.000482344 -8.44477e-05 0.000491882 -0.000114743 0.00208865 0.000300338 0.00180771 0.000255358 0.000300338 -0.000237087 0.000255358 -0.000161075 0.00180771 0.000255358 0.00213521 2.21822e-05 0.000255358 -0.000161075 2.21822e-05 -8.5063e-05 3.72556e-05 4.03088e-05 0.000146188 0.000136802 0.000146188 0.000136802 0.000255121 0.000362155 0.0013745 0.000829998 0.00136884 0.000846216 0.00136884 0.000846216 0.00156467 0.000737402 0.00156517 0.000737827 0.00136618 0.000843943 0.00136618 0.000843943 0.0013914 0.000840334 0.000255117 0.000362523 0.000146186 0.00013658 0.000146186 0.00013658 3.72556e-05 4.03088e-05 0.00213521 2.21822e-05 0.00270347 -0.000298187 2.21822e-05 -8.5063e-05 -0.000298187 2.97516e-05 0.00270347 -0.000298187 0.00222818 -0.000453425 -0.000298187 2.97516e-05 -0.000453425 0.000144566 0.00222818 -0.000453424 0.00270347 -0.000298187 -0.000453424 0.000144564 -0.000298187 2.97486e-05 0.00270347 -0.000298187 0.00213521 2.21828e-05 -0.000298187 2.97486e-05 2.21828e-05 -8.50664e-05 -0.000162253 -0.000270951 -0.000175003 -0.000147434 -0.000270951 0.00213521 -0.000147434 0.00180771 -0.000175003 -0.000147434 -0.000144838 -4.43376e-05 -0.000147434 0.00180771 -4.43376e-05 0.00208865 0.00213521 2.21828e-05 0.00180771 0.000255358 2.21828e-05 -8.50664e-05 0.000255358 -0.000161077 0.00180771 0.000255358 0.00208865 0.000300338 0.000255358 -0.000161077 0.000300338 -0.000237087 0.00190697 0.00191218 0.00169187 0.00187398 0.00191218 0.00194556 0.00187398 0.00196741 0.00169187 0.00187398 0.00147676 0.00161738 0.00147676 0.00161737 0.00169186 0.00187398 0.00169186 0.00187398 0.00190697 0.00191218 0.00187398 0.00196741 0.00191218 0.00194556 0.00173645 0.000584285 0.0013745 0.000829998 0.00194556 0.00163778 0.00196741 0.00166266 0.00163778 0.000307904 0.00166266 0.000247704 0.00196741 0.00166266 0.00197656 0.00156901 0.00166266 0.000247704 0.00156901 0.000269803 0.00156901 0.000269803 0.00109703 0.000668555 0.00109703 0.000668555 0.000572103 0.00117557 0.000572427 0.00117564 0.00109703 0.000668533 0.00109703 0.000668533 0.00156901 0.000269805 0.00197656 0.00156901 0.00196741 0.00166266 0.00156901 0.000269805 0.00166266 0.000247704 0.00196741 0.00166266 0.00194556 0.00163778 0.00166266 0.000247704 0.00163778 0.000307904 0.00157131 0.000655253 0.00160349 0.000678804 0.000655253 -0.000144838 0.000678804 -0.000175003 0.00160349 0.000678804 0.00161491 0.000675681 0.000678804 -0.000175003 0.000675681 -0.000162254 0.00161492 0.000675678 0.00160347 0.000678802 0.000675678 -0.000162253 0.000678802 -0.000175003 0.00160347 0.000678802 0.00157131 0.000655253 0.000678802 -0.000175003 0.000655253 -0.000144838 0.000362155 0.000828032 0.000458356 0.000902537 0.000828032 0.0013745 0.000902537 0.00137167 0.000458356 0.000902537 0.000554558 0.000961699 0.000902537 0.00137167 0.000961699 0.00136884 0.000555447 0.000960811 0.000458985 0.000900956 0.000960811 0.00136618 0.000900956 0.00137879 0.000458985 0.000900956 0.000362523 0.000825084 0.000900956 0.00137879 0.000825084 0.0013914 0.000921365 0.00112595 0.000854755 0.00110225 0.00112595 0.000491882 0.00110225 0.000487113 0.000854755 0.00110225 0.000763225 0.000987252 0.00110225 0.000487113 0.000987252 0.000482344 0.000763225 0.000987252 0.000631582 0.00106323 0.000987252 0.000482344 0.00106323 0.000462247 0.000631582 0.00106323 0.00175607 0.00109911 0.00106323 0.000462247 0.00109911 0.00044215 0.00175607 0.00109911 0.000631582 0.00106323 0.00109911 0.00044215 0.00106323 0.000462247 0.000631582 0.00106323 0.000763225 0.000987252 0.00106323 0.000462247 0.000987252 0.000482344 0.000763225 0.000987252 0.000854755 0.00110225 0.000987252 0.000482344 0.00110225 0.000487113 0.000854755 0.00110225 0.000921365 0.00112595 0.00110225 0.000487113 0.00112595 0.000491882 0.00187398 0.0019207 0.00174568 0.00188356 0.0019207 0.00196741 0.00188356 0.00197198 0.00174568 0.00188356 0.00161738 0.00179622 0.00188356 0.00197198 0.00179622 0.00197656 0.00161737 0.00179622 0.00174568 0.00188356 0.00179622 0.00197656 0.00188356 0.00197198 0.00174568 0.00188356 0.00187398 0.0019207 0.00188356 0.00197198 0.0019207 0.00196741 0.00137983 0.00137581 0.00184611 0.00167777 0.00137581 0.000763225 0.00167777 0.000631582 0.00184611 0.00167777 0.00215674 0.0015601 0.00167777 0.000631582 0.0015601 0.00175607 0.00215674 0.0015601 0.00219277 0.00149631 0.0015601 0.00175607 0.00149631 0.00206827 0.00219277 0.00149631 0.0021928 0.00139115 0.00149631 0.00206827 0.00139115 0.00238047 0.000903299 0.00157131 0.000904373 0.0015874 0.000904373 0.0015874 0.000899882 0.00160349 0.000340687 0.000899882 0.000344548 0.000912449 0.000899882 0.00160349 0.000912449 0.0016092 0.000344548 0.000912449 0.000354079 0.000907023 0.000912449 0.0016092 0.000907023 0.00161491 0.000354079 0.000907023 0.000368138 0.000890457 0.000907023 0.00161491 0.000890457 0.00155471 0.000890457 0.00155471 0.000862023 0.0014778 0.0021928 0.00139115 0.00225914 0.0014244 0.00139115 0.00238047 0.0014244 0.00230433 0.00225914 0.0014244 0.00207871 0.00135032 0.0014244 0.00230433 0.00135032 0.00222818 0.00207871 0.00135032 0.00225914 0.0014244 0.00135032 0.00222818 0.0014244 0.00230433 0.00225914 0.0014244 0.0021928 0.00139115 0.0014244 0.00230433 0.00139115 0.00238047 0.0021928 0.00139115 0.00219277 0.00149631 0.00139115 0.00238047 0.00149631 0.00206827 0.00219277 0.00149631 0.00215674 0.0015601 0.00149631 0.00206827 0.0015601 0.00175607 0.00215674 0.0015601 0.00184611 0.00167777 0.0015601 0.00175607 0.00167777 0.000631582 0.00184611 0.00167777 0.00137983 0.00137581 0.00167777 0.000631582 0.00137581 0.000763225 0.000399432 0.000862023 0.000454826 0.000842405 0.000862023 0.0014778 0.000842405 0.00136078 0.000454826 0.000842405 0.000572427 0.000874031 0.000842405 0.00136078 0.000874031 0.00117564 0.000572103 0.000873835 0.000453361 0.000843249 0.000873835 0.00117557 0.000843249 0.00136057 0.000843249 0.00136057 0.000879454 0.00147344 0.000879454 0.00147344 0.000889359 0.00155502 0.000367888 0.000889359 0.000354087 0.000906906 0.000889359 0.00155502 0.000906906 0.00161492 0.000354087 0.000906906 0.000344471 0.000912512 0.000906906 0.00161492 0.000912512 0.00160919 0.000344471 0.000912512 0.000340418 0.000899925 0.000912512 0.00160919 0.000899925 0.00160347 0.000899925 0.00160347 0.000904441 0.00158739 0.000904441 0.00158739 0.000903299 0.00157131 -0.000162254 -0.000216603 -0.00010587 3.01154e-05 -0.000216603 -0.000270951 3.01154e-05 8.3765e-05 -0.00010587 3.01154e-05 -3.18301e-05 0.000517276 3.01154e-05 8.3765e-05 0.000517276 0.000426791 0.000348345 0.000865517 0.000632834 0.00119258 0.000865517 0.00187611 0.00119258 0.00179482 0.000632835 0.00119258 0.000348346 0.000865517 0.00119258 0.00179482 0.000865517 0.00187611 -0.000270951 0.000932128 8.3765e-05 0.000500859 0.000932128 0.00213521 0.000500859 0.00241934 8.3765e-05 0.000500859 0.000426791 0.000564387 0.000500859 0.00241934 0.000564387 0.00270347 0.000426791 0.000564387 0.00127427 0.000946499 0.000564387 0.00270347 0.000946499 0.00246583 0.00127427 0.000946499 0.00207871 0.00135032 0.000946499 0.00246583 0.00135032 0.00222818 0.00207871 0.00135032 0.00127427 0.000946499 0.00135032 0.00222818 0.000946499 0.00246583 0.00127427 0.000946499 0.000426791 0.000564387 0.000946499 0.00246583 0.000564387 0.00270347 0.00161738 0.00179622 0.00134096 0.00162549 0.00179622 0.00197656 0.00162549 0.00196159 0.00134096 0.00162549 0.00106453 0.00136308 0.00162549 0.00196159 0.00136308 0.00195381 -3.18301e-05 0.000517276 -0.000105869 3.01148e-05 0.000517276 0.000426791 3.01148e-05 8.37651e-05 -0.000105869 3.01148e-05 -0.000162253 -0.000216602 3.01148e-05 8.37651e-05 -0.000216602 -0.000270951 0.00106453 0.00136308 0.000901179 0.00108461 0.00136308 0.00195381 0.00108461 0.00193157 0.000901179 0.00108461 0.000737827 0.000882048 0.00108461 0.00193157 0.000882048 0.00192511 0.000307904 0.000252101 0.000277804 0.00026412 0.000252101 0.000234323 0.00026412 0.000348345 0.000277804 0.00026412 0.000247704 0.000269033 0.00026412 0.000348345 0.000269033 0.000632834 0.000247704 0.000269033 0.000258753 0.000267664 0.000269033 0.000632834 0.000267664 0.00085588 0.000258753 0.000267664 0.000269803 0.00031126 0.000267664 0.00085588 0.00031126 0.000935884 0.000632834 0.00119258 0.00085588 0.00161787 0.00119258 0.00179482 0.00161787 0.00162494 0.00085588 0.00161787 0.000935884 0.00184847 0.00161787 0.00162494 0.00184847 0.00133429 0.000426791 0.000564387 8.37651e-05 0.000500859 0.000564387 0.00270347 0.000500859 0.00241934 8.37651e-05 0.000500859 -0.000270951 0.000932128 0.000500859 0.00241934 0.000932128 0.00213521 0.000269803 0.00031126 0.000469179 0.000407386 0.00031126 0.000935884 0.000407386 0.000956716 0.000469179 0.000407386 0.000668555 0.00064858 0.000407386 0.000956716 0.00064858 0.00100865 0.000935884 0.00184847 0.000956716 0.00187863 0.00184847 0.00133429 0.00187863 0.000937633 0.000668555 0.00064858 0.000922061 0.000980066 0.00064858 0.00100865 0.000980066 0.00119711 0.000922061 0.000980066 0.00117557 0.00124105 0.000980066 0.00119711 0.00124105 0.00128231 0.000737402 0.000882148 0.000901002 0.00108465 0.000882148 0.00192509 0.00108465 0.00193156 0.000901002 0.00108465 0.0010646 0.00136306 0.00108465 0.00193156 0.00136306 0.00195381 4.03088e-05 0.000588358 8.85557e-05 0.000584255 8.85557e-05 0.000584255 0.000136802 0.000614228 0.000136802 0.000614228 0.000249479 0.00069642 0.000614228 0.00173645 0.00069642 0.00155548 0.000249479 0.00069642 0.000362155 0.000828032 0.00069642 0.00155548 0.000828032 0.0013745 0.000362523 0.000825084 0.000249552 0.000700137 0.000825084 0.0013914 0.000700137 0.00154633 0.000249552 0.000700137 0.00013658 0.000614586 0.0010646 0.00136306 0.00134099 0.00162548 0.00136306 0.00195381 0.00162548 0.00196159 0.00134099 0.00162548 0.00161737 0.00179622 0.00162548 0.00196159 0.00179622 0.00197656 0.00013658 0.000614586 8.84446e-05 0.000584459 8.84446e-05 0.000584459 4.03088e-05 0.000588358 0.000829998 0.000564701 0.000838107 0.000643073 0.000564701 0.00199543 0.000643073 0.00196777 0.000838107 0.000643073 0.000846216 0.000682491 0.000643073 0.00196777 0.000682491 0.00194825 0.000846216 0.000682491 0.000791809 0.000743141 0.000682491 0.00194825 0.000743141 0.00193298 0.000791809 0.000743141 0.000737402 0.000882148 0.000743141 0.00193298 0.000882148 0.00192509 0.000737827 0.000882048 0.000790885 0.000743355 0.000882048 0.00192511 0.000743355 0.00193289 0.000790885 0.000743355 0.000843943 0.000683038 0.000743355 0.00193289 0.000683038 0.00194802 0.000843943 0.000683038 0.000842138 0.000642114 0.000683038 0.00194802 0.000642114 0.00196805 0.000842138 0.000642114 0.000840334 0.000562205 0.000642114 0.00196805 0.000562205 0.00199622 0.00161491 0.0011453 0.00155471 0.00117834 0.0011453 0.000675681 0.00117834 0.000723254 0.00155471 0.00117834 0.0014778 0.00122006 0.00117834 0.000723254 0.00122006 0.00085866 0.000675681 0.000256713 0.000723254 0.000181864 0.000256713 -0.000162254 0.000181864 -0.00010587 0.00197656 0.00177279 0.00196159 0.00157742 0.00177279 0.00156901 0.00157742 0.00133302 0.00196159 0.00157742 0.00195381 0.00145592 0.00157742 0.00133302 0.00145592 0.00109703 0.0014778 0.00122006 0.00136078 0.00128934 0.00122006 0.00085866 0.00128934 0.00111372 0.00136078 0.00128934 0.00117564 0.00124102 0.00184725 0.0012978 0.00181312 0.00127236 0.0012978 0.00044754 0.00127236 0.000474326 0.00181312 0.00127236 0.00173645 0.00116037 0.00127236 0.000474326 0.00116037 0.000584285 0.00044754 0.00031268 0.000474326 0.000334915 0.00031268 0.00207954 0.000334915 0.00207056 0.000474326 0.000334915 0.000584285 0.000384512 0.000334915 0.00207056 0.000384512 0.00205186 0.000584285 0.000384512 0.000707142 0.000473228 0.000384512 0.00205186 0.000473228 0.00202337 0.000707142 0.000473228 0.000829998 0.000564701 0.000473228 0.00202337 0.000564701 0.00199543 0.0013914 0.00111587 0.00154633 0.0012506 0.00111587 0.000840334 0.0012506 0.00069736 0.00154633 0.0012506 0.00171454 0.00129916 0.0012506 0.00069736 0.00129916 0.000564171 0.000840334 0.000562205 0.00069736 0.000474105 0.000562205 0.00199622 0.000474105 0.0020222 0.00069736 0.000474105 0.000564171 0.000382133 0.000474105 0.0020222 0.000382133 0.00205155 0.00171454 0.00129916 0.0018163 0.00129874 0.00129916 0.000564171 0.00129874 0.000478903 0.0018163 0.00129874 0.00184725 0.0012978 0.00129874 0.000478903 0.0012978 0.00044754 0.000564171 0.000382133 0.000478903 0.000317062 0.000478903 0.000317062 0.00044754 0.00031268 0.00145592 0.00109703 0.00140405 0.000834568 0.00140405 0.000834568 0.00139809 0.000572103 0.00139806 0.000572427 0.00140403 0.000834727 0.00140403 0.000834727 0.00145593 0.00109703 0.00195381 0.00145593 0.00196159 0.00157742 0.00145593 0.00109703 0.00157742 0.00133302 0.00196159 0.00157742 0.00197656 0.00177278 0.00157742 0.00133302 0.00177278 0.00156901 0.0013905 0.000454826 0.00139806 0.000572427 0.00139809 0.000572103 0.00139091 0.000453361 0.00117564 0.00124102 0.000922084 0.000980054 0.00124102 0.00128232 0.000980054 0.00119711 0.000922084 0.000980054 0.000668533 0.000648583 0.000980054 0.00119711 0.000648583 0.00100865 0.000668533 0.000648583 0.000469169 0.000407388 0.000648583 0.00100865 0.000407388 0.000956716 0.000469169 0.000407388 0.000269805 0.00031126 0.000407388 0.000956716 0.00031126 0.000935884 0.000956716 0.00187863 0.000935884 0.00184847 0.00187863 0.000937633 0.00184847 0.00133429 0.000269805 0.00031126 0.000258755 0.000267664 0.00031126 0.000935884 0.000267664 0.00085588 0.000258755 0.000267664 0.000247704 0.000269033 0.000267664 0.00085588 0.000269033 0.000632835 0.000935884 0.00184847 0.00085588 0.00161787 0.00184847 0.00133429 0.00161787 0.00162494 0.00085588 0.00161787 0.000632835 0.00119258 0.00161787 0.00162494 0.00119258 0.00179482 0.000247704 0.000269033 0.000277804 0.000264119 0.000269033 0.000632835 0.000264119 0.000348346 0.000277804 0.000264119 0.000307904 0.000252101 0.000264119 0.000348346 0.000252101 0.000234323 0.00117557 0.00124105 0.00136057 0.00128939 0.00136057 0.00128939 0.00147344 0.00122117 0.00128939 0.00111371 0.00122117 0.000858316 0.00147344 0.00122117 0.00155502 0.00117825 0.00122117 0.000858316 0.00117825 0.00072328 0.00155502 0.00117825 0.00161492 0.0011453 0.00117825 0.00072328 0.0011453 0.000675678 0.00072328 0.000181858 0.000675678 0.000256713 0.000181858 -0.000105869 0.000256713 -0.000162253 0.00104325 0.000921365 0.00115932 0.000854755 0.00115932 0.000854755 0.00137581 0.000763225 0.00179482 0.00224395 0.00162494 0.00207267 0.00162494 0.00207267 0.00133429 0.00190475 0.00133429 0.00190475 0.00162494 0.00207267 0.00162494 0.00207267 0.00179482 0.00224395 0.00137581 0.000763225 0.00115932 0.000854755 0.00115932 0.000854755 0.00104325 0.000921365 0.000372347 0.000585238 0.000371353 0.000584749 0.000585238 0.000903299 0.000584749 0.000903836 0.000371353 0.000584749 0.000368086 0.000584618 0.000584749 0.000903836 0.000584618 0.000904373 0.000368086 0.000584618 0.000360547 0.000591423 0.000584618 0.000904373 0.000591423 0.000902128 0.000360547 0.000591423 0.000340687 0.000620284 0.000591423 0.000902128 0.000620284 0.000899882 0.000368138 0.000629298 0.000396956 0.000605697 0.000629298 0.000890457 0.000605697 0.00087624 0.000396956 0.000605697 0.000399432 0.000630727 0.000605697 0.00087624 0.000630727 0.000862023 0.000453361 0.000648305 0.000445419 0.000601451 0.000648305 0.000843249 0.000601451 0.000861351 0.000445419 0.000601451 0.000425607 0.00058778 0.000601451 0.000861351 0.00058778 0.000879454 0.000425607 0.00058778 0.000402152 0.000594819 0.00058778 0.000879454 0.000594819 0.000884406 0.000402152 0.000594819 0.000367888 0.000628623 0.000594819 0.000884406 0.000628623 0.000889359 0.000340418 0.000620171 0.000360248 0.00059127 0.000620171 0.000899925 0.00059127 0.000902183 0.000360248 0.00059127 0.00036783 0.000584479 0.00059127 0.000902183 0.000584479 0.000904441 0.00036783 0.000584479 0.000371206 0.00058467 0.000584479 0.000904441 0.00058467 0.00090387 0.000371206 0.00058467 0.000372347 0.000585238 0.00058467 0.00090387 0.000585238 0.000903299 0.000234323 0.000436915 0.000291334 0.000471472 0.000436915 0.000783679 0.000471472 0.000807011 0.000291334 0.000471472 0.000348345 0.000606931 0.000471472 0.000807011 0.000606931 0.000865517 0.000783679 0.0013432 0.000807011 0.00134693 0.0013432 0.00192626 0.00134693 0.00191321 0.000807011 0.00134693 0.000865517 0.00137081 0.00134693 0.00191321 0.00137081 0.00187611 0.000348346 0.000606931 0.000291334 0.000471472 0.000606931 0.000865517 0.000471472 0.000807011 0.000291334 0.000471472 0.000234323 0.000436915 0.000471472 0.000807011 0.000436915 0.000783679 0.000865517 0.00137081 0.000807011 0.00134693 0.00137081 0.00187611 0.00134693 0.00191321 0.000807011 0.00134693 0.000783679 0.0013432 0.00134693 0.00191321 0.0013432 0.00192626 0.000588358 0.0012366 0.000586307 0.00123546 0.0012366 0.00184725 0.00123546 0.00183018 0.000586307 0.00123546 0.000584255 0.0012238 0.00123546 0.00183018 0.0012238 0.00181312 0.000584255 0.0012238 0.000599242 0.00120383 0.0012238 0.00181312 0.00120383 0.00177479 0.000599242 0.00120383 0.000614228 0.00117534 0.00120383 0.00177479 0.00117534 0.00173645 0.000700137 0.00112323 0.000657361 0.00115378 0.00112323 0.00154633 0.00115378 0.00163044 0.000657361 0.00115378 0.000614586 0.00118169 0.00115378 0.00163044 0.00118169 0.00171454 0.000614586 0.00118169 0.000599522 0.00120601 0.00118169 0.00171454 0.00120601 0.00176542 0.000599522 0.00120601 0.000584459 0.00122301 0.00120601 0.00176542 0.00122301 0.0018163 0.000584459 0.00122301 0.000586409 0.00123514 0.00122301 0.0018163 0.00123514 0.00183177 0.000586409 0.00123514 0.00058