# vtk DataFile Version 3.0
#This file was generated by the deal.II library on 2023/3/1 at 4:17:10
ASCII
DATASET UNSTRUCTURED_GRID

FIELD FieldData 2
CYCLE 1 1 int
76
TIME 1 1 double
0.152
POINTS 8260 double
-1.62132 0.707107 -1.62132
-0.877452 0.707107 -2.11836
-1.85072 0.92388 -1.85072
-1.0016 0.92388 -2.41809
-1.85072 0.92388 -1.85072
-1.0016 0.92388 -2.41809
-2.12132 1 -2.12132
-1.14805 1 -2.77164
-2.12132 -1 -2.12132
-1.14805 -1 -2.77164
-1.85072 -0.92388 -1.85072
-1.0016 -0.92388 -2.41809
-1.85072 -0.92388 -1.85072
-1.0016 -0.92388 -2.41809
-1.62132 -0.707107 -1.62132
-0.877452 -0.707107 -2.11836
-3.69552 0 -1.53073
-2.82843 0 -2.82843
-3.62519 -0.382683 -1.5016
-2.7746 -0.382683 -2.7746
-1.41421 1.22465e-16 -1.41421
-0.765367 1.22465e-16 -1.84776
-1.46804 0.382683 -1.46804
-0.794497 0.382683 -1.91809
-0.765367 1.22465e-16 -1.84776
0 0 -2
-0.794497 0.382683 -1.91809
-3.81377e-16 0.382683 -2.07612
-1.46804 0.382683 -1.46804
-0.794497 0.382683 -1.91809
-1.62132 0.707107 -1.62132
-0.877452 0.707107 -2.11836
-0.794497 0.382683 -1.91809
-3.81377e-16 0.382683 -2.07612
-0.877452 0.707107 -2.11836
-4.21198e-16 0.707107 -2.29289
-1.62132 -0.707107 -1.62132
-0.877452 -0.707107 -2.11836
-1.46804 -0.382683 -1.46804
-0.794497 -0.382683 -1.91809
-0.877452 -0.707107 -2.11836
-4.21198e-16 -0.707107 -2.29289
-0.794497 -0.382683 -1.91809
-3.81377e-16 -0.382683 -2.07612
-1.46804 -0.382683 -1.46804
-0.794497 -0.382683 -1.91809
-1.41421 1.22465e-16 -1.41421
-0.765367 1.22465e-16 -1.84776
-0.794497 -0.382683 -1.91809
-3.81377e-16 -0.382683 -2.07612
-0.765367 1.22465e-16 -1.84776
0 0 -2
-2.82843 0 -2.82843
-1.53073 0 -3.69552
-2.7746 -0.382683 -2.7746
-1.5016 -0.382683 -3.62519
2.62132 -0.707107 2.62132
1.41865 -0.707107 3.42492
2.39192 -0.92388 2.39192
1.2945 -0.92388 3.12519
2.39192 -0.92388 2.39192
1.2945 -0.92388 3.12519
2.12132 -1 2.12132
1.14805 -1 2.77164
2.12132 1 2.12132
1.14805 1 2.77164
2.39192 0.92388 2.39192
1.2945 0.92388 3.12519
-2.62132 -0.707107 -2.62132
-1.41865 -0.707107 -3.42492
-2.39192 -0.92388 -2.39192
-1.2945 -0.92388 -3.12519
-2.39192 -0.92388 -2.39192
-1.2945 -0.92388 -3.12519
-2.12132 -1 -2.12132
-1.14805 -1 -2.77164
-2.12132 1 -2.12132
-1.14805 1 -2.77164
-2.39192 0.92388 -2.39192
-1.2945 0.92388 -3.12519
-2.39192 0.92388 -2.39192
-1.2945 0.92388 -3.12519
-2.62132 0.707107 -2.62132
-1.41865 0.707107 -3.42492
-3.62519 0.382683 -1.5016
-2.7746 0.382683 -2.7746
-3.69552 0 -1.53073
-2.82843 0 -2.82843
-2.7746 0.382683 -2.7746
-1.5016 0.382683 -3.62519
-2.82843 0 -2.82843
-1.53073 0 -3.69552
1.41421 1.22465e-16 1.41421
0.765367 1.22465e-16 1.84776
1.46804 0.382683 1.46804
0.794497 0.382683 1.91809
2.82843 0 2.82843
1.53073 0 3.69552
2.7746 -0.382683 2.7746
1.5016 -0.382683 3.62519
2.62132 0.707107 2.62132
1.41865 0.707107 3.42492
2.7746 0.382683 2.7746
1.5016 0.382683 3.62519
-3.12519 -0.92388 -1.2945
-2.39192 -0.92388 -2.39192
-2.77164 -1 -1.14805
-2.12132 -1 -2.12132
-2.77164 1 -1.14805
-2.12132 1 -2.12132
-3.12519 0.92388 -1.2945
-2.39192 0.92388 -2.39192
0 0 -2
0.765367 1.22465e-16 -1.84776
-3.81377e-16 0.382683 -2.07612
0.794497 0.382683 -1.91809
0.765367 1.22465e-16 -1.84776
1.41421 1.22465e-16 -1.41421
0.794497 0.382683 -1.91809
1.46804 0.382683 -1.46804
-3.81377e-16 0.382683 -2.07612
0.794497 0.382683 -1.91809
-4.21198e-16 0.707107 -2.29289
0.877452 0.707107 -2.11836
0.794497 0.382683 -1.91809
1.46804 0.382683 -1.46804
0.877452 0.707107 -2.11836
1.62132 0.707107 -1.62132
-4.21198e-16 0.707107 -2.29289
0.877452 0.707107 -2.11836
-4.80793e-16 0.92388 -2.61732
1.0016 0.92388 -2.41809
1.0016 0.92388 -2.41809
1.85072 0.92388 -1.85072
1.14805 1 -2.77164
2.12132 1 -2.12132
0 -1 -3
1.14805 -1 -2.77164
-4.80793e-16 -0.92388 -2.61732
1.0016 -0.92388 -2.41809
1.14805 -1 -2.77164
2.12132 -1 -2.12132
1.0016 -0.92388 -2.41809
1.85072 -0.92388 -1.85072
-4.80793e-16 -0.92388 -2.61732
1.0016 -0.92388 -2.41809
-4.21198e-16 -0.707107 -2.29289
0.877452 -0.707107 -2.11836
-4.21198e-16 -0.707107 -2.29289
0.877452 -0.707107 -2.11836
-3.81377e-16 -0.382683 -2.07612
0.794497 -0.382683 -1.91809
0.877452 -0.707107 -2.11836
1.62132 -0.707107 -1.62132
0.794497 -0.382683 -1.91809
1.46804 -0.382683 -1.46804
-3.81377e-16 -0.382683 -2.07612
0.794497 -0.382683 -1.91809
0 0 -2
0.765367 1.22465e-16 -1.84776
0.794497 -0.382683 -1.91809
1.46804 -0.382683 -1.46804
0.765367 1.22465e-16 -1.84776
1.41421 1.22465e-16 -1.41421
3.69552 0 -1.53073
4 0 0
3.62519 -0.382683 -1.5016
3.92388 -0.382683 0
3.62519 -0.382683 -1.5016
3.92388 -0.382683 0
3.42492 -0.707107 -1.41865
3.70711 -0.707107 0
1.2945 -0.92388 -3.12519
2.39192 -0.92388 -2.39192
1.14805 -1 -2.77164
2.12132 -1 -2.12132
1.14805 1 -2.77164
2.12132 1 -2.12132
1.2945 0.92388 -3.12519
2.39192 0.92388 -2.39192
3.42492 0.707107 -1.41865
3.70711 0.707107 0
3.62519 0.382683 -1.5016
3.92388 0.382683 0
3.62519 0.382683 -1.5016
3.92388 0.382683 0
3.69552 0 -1.53073
4 0 0
3.42492 -0.707107 -1.41865
3.70711 -0.707107 0
3.12519 -0.92388 -1.2945
3.38268 -0.92388 0
3.12519 -0.92388 -1.2945
3.38268 -0.92388 0
2.77164 -1 -1.14805
3 -1 0
2.77164 1 -1.14805
3 1 0
3.12519 0.92388 -1.2945
3.38268 0.92388 0
3.12519 0.92388 -1.2945
3.38268 0.92388 0
3.42492 0.707107 -1.41865
3.70711 0.707107 0
1.46804 -0.382683 1.46804
0.794497 -0.382683 1.91809
1.41421 1.22465e-16 1.41421
0.765367 1.22465e-16 1.84776
2.11836 0.707107 0.877452
1.90647 0.707107 1.27386
2.25836 0.83147 0.935443
2.03247 0.83147 1.35805
1.90647 0.707107 1.27386
1.62132 0.707107 1.62132
2.03247 0.83147 1.35805
1.72847 0.83147 1.72847
2.25836 0.83147 0.935443
2.03247 0.83147 1.35805
2.41809 0.92388 1.0016
2.17622 0.92388 1.4541
2.03247 0.83147 1.35805
1.72847 0.83147 1.72847
2.17622 0.92388 1.4541
1.85072 0.92388 1.85072
2.80491 0.980785 0
2.75101 0.980785 0.547211
3 1 0
2.94236 1 0.585271
2.41809 0.92388 1.0016
2.17622 0.92388 1.4541
2.5914 0.980785 1.07339
2.3322 0.980785 1.55832
2.17622 0.92388 1.4541
1.85072 0.92388 1.85072
2.3322 0.980785 1.55832
1.98337 0.980785 1.98337
2.5914 0.980785 1.07339
2.3322 0.980785 1.55832
2.77164 1 1.14805
2.49441 1 1.66671
2.3322 0.980785 1.55832
1.98337 0.980785 1.98337
2.49441 1 1.66671
2.12132 1 2.12132
1.27386 0.707107 1.90647
0.877452 0.707107 2.11836
1.35805 0.83147 2.03247
0.935443 0.83147 2.25836
1.72847 0.83147 1.72847
1.35805 0.83147 2.03247
1.85072 0.92388 1.85072
1.4541 0.92388 2.17622
1.35805 0.83147 2.03247
0.935443 0.83147 2.25836
1.4541 0.92388 2.17622
1.0016 0.92388 2.41809
3 -1 0
2.94236 -1 0.585271
2.80491 -0.980785 0
2.75101 -0.980785 0.547211
2.77164 -1 1.14805
2.49441 -1 1.66671
2.5914 -0.980785 1.07339
2.3322 -0.980785 1.55832
2.49441 -1 1.66671
2.12132 -1 2.12132
2.3322 -0.980785 1.55832
1.98337 -0.980785 1.98337
2.5914 -0.980785 1.07339
2.3322 -0.980785 1.55832
2.41809 -0.92388 1.0016
2.17622 -0.92388 1.4541
2.3322 -0.980785 1.55832
1.98337 -0.980785 1.98337
2.17622 -0.92388 1.4541
1.85072 -0.92388 1.85072
0.877452 0.707107 2.11836
0.447321 0.707107 2.24884
0.935443 0.83147 2.25836
0.476885 0.83147 2.39746
0.935443 0.83147 2.25836
0.476885 0.83147 2.39746
1.0016 0.92388 2.41809
0.510613 0.92388 2.56703
0.476885 0.83147 2.39746
1.49678e-16 0.83147 2.44443
0.510613 0.92388 2.56703
1.60264e-16 0.92388 2.61732
-0.877452 0.707107 -2.11836
-0.447321 0.707107 -2.24884
-0.935443 0.83147 -2.25836
-0.476885 0.83147 -2.39746
-0.447321 0.707107 -2.24884
-4.21198e-16 0.707107 -2.29289
-0.476885 0.83147 -2.39746
-4.49034e-16 0.83147 -2.44443
-0.935443 0.83147 -2.25836
-0.476885 0.83147 -2.39746
-1.0016 0.92388 -2.41809
-0.510613 0.92388 -2.56703
-0.476885 0.83147 -2.39746
-4.49034e-16 0.83147 -2.44443
-0.510613 0.92388 -2.56703
-4.80793e-16 0.92388 -2.61732
-2.22228 0 3.32588
-2.82843 0 2.82843
-2.21161 -0.19509 3.3099
-2.81484 -0.19509 2.81484
-1.52338 -0.19509 3.67777
-2.21161 -0.19509 3.3099
-1.5016 -0.382683 3.62519
-2.17999 -0.382683 3.26259
-2.21161 -0.19509 3.3099
-2.81484 -0.19509 2.81484
-2.17999 -0.382683 3.26259
-2.7746 -0.382683 2.7746
2.41809 -0.92388 1.0016
2.17622 -0.92388 1.4541
2.25836 -0.83147 0.935443
2.03247 -0.83147 1.35805
2.17622 -0.92388 1.4541
1.85072 -0.92388 1.85072
2.03247 -0.83147 1.35805
1.72847 -0.83147 1.72847
2.25836 -0.83147 0.935443
2.03247 -0.83147 1.35805
2.11836 -0.707107 0.877452
1.90647 -0.707107 1.27386
2.03247 -0.83147 1.35805
1.72847 -0.83147 1.72847
1.90647 -0.707107 1.27386
1.62132 -0.707107 1.62132
3.08235 -0.707107 2.05956
2.62132 -0.707107 2.62132
2.95635 -0.83147 1.97537
2.51417 -0.83147 2.51417
2.95635 -0.83147 1.97537
2.51417 -0.83147 2.51417
2.8126 -0.92388 1.87932
2.39192 -0.92388 2.39192
-1.0016 -0.92388 -2.41809
-0.510613 -0.92388 -2.56703
-0.935443 -0.83147 -2.25836
-0.476885 -0.83147 -2.39746
-0.510613 -0.92388 -2.56703
-4.80793e-16 -0.92388 -2.61732
-0.476885 -0.83147 -2.39746
-4.49034e-16 -0.83147 -2.44443
-0.935443 -0.83147 -2.25836
-0.476885 -0.83147 -2.39746
-0.877452 -0.707107 -2.11836
-0.447321 -0.707107 -2.24884
-0.476885 -0.83147 -2.39746
-4.49034e-16 -0.83147 -2.44443
-0.447321 -0.707107 -2.24884
-4.21198e-16 -0.707107 -2.29289
-4 0 0
-3.92314 0 -0.780361
-3.98079 -0.19509 4.87506e-16
-3.9043 -0.19509 -0.776613
-3.92314 0 -0.780361
-3.69552 0 -1.53073
-3.9043 -0.19509 -0.776613
-3.67777 -0.19509 -1.52338
-3.98079 -0.19509 4.87506e-16
-3.9043 -0.19509 -0.776613
-3.92388 -0.382683 4.80537e-16
-3.84848 -0.382683 -0.765511
-3.9043 -0.19509 -0.776613
-3.67777 -0.19509 -1.52338
-3.84848 -0.382683 -0.765511
-3.62519 -0.382683 -1.5016
2.39192 0.92388 2.39192
1.87932 0.92388 2.8126
2.51417 0.83147 2.51417
1.97537 0.83147 2.95635
1.87932 0.92388 2.8126
1.2945 0.92388 3.12519
1.97537 0.83147 2.95635
1.36066 0.83147 3.28492
2.51417 0.83147 2.51417
1.97537 0.83147 2.95635
2.62132 0.707107 2.62132
2.05956 0.707107 3.08235
1.97537 0.83147 2.95635
1.36066 0.83147 3.28492
2.05956 0.707107 3.08235
1.41865 0.707107 3.42492
2.8126 0.92388 1.87932
2.39192 0.92388 2.39192
2.95635 0.83147 1.97537
2.51417 0.83147 2.51417
2.95635 0.83147 1.97537
2.51417 0.83147 2.51417
3.08235 0.707107 2.05956
2.62132 0.707107 2.62132
1.0016 0.92388 2.41809
[...]
POINT_DATA 8260
SCALARS U double 1
LOOKUP_TABLE default
0.00148561 0.00149662 0.00163787 0.00113813 0.00163787 0.00113813 0.00170327 0.000811727 0.00170307 0.000811869 0.00163841 0.00113804 0.00163841 0.00113804 0.00148672 0.00149636 0.000154498 0.00151048 0.000175231 0.00150972 0.00123835 0.00168696 0.00133779 0.00166641 0.00168696 0.00183196 0.00166641 0.0018374 0.00133779 0.00166641 0.00148561 0.00149662 0.00166641 0.0018374 0.00149662 0.00184408 0.00148672 0.00149636 0.00133784 0.00166677 0.00149636 0.00184467 0.00166677 0.00183835 0.00133784 0.00166677 0.00123835 0.00168696 0.00166677 0.00183835 0.00168696 0.00183196 0.00151048 0.00129741 0.00150972 0.00120044 0.00193711 0.002023 0.00206647 0.00209777 0.00206647 0.00209777 0.00220422 0.00233426 0.00220278 0.0023263 0.00207696 0.00210844 0.00156878 0.000958273 0.00166604 0.000754439 0.00166604 0.000754439 0.00170307 0.000811869 0.00170327 0.000811727 0.00166604 0.000754483 0.00166604 0.000754483 0.00156877 0.000958261 0.000175232 0.00150972 0.000154498 0.00151048 0.00150972 0.00120044 0.00151048 0.00129741 0.0034318 0.00372661 0.0034148 0.00366078 0.00218779 0.00203806 0.00204226 0.00201128 0.00193747 0.00203982 0.00204908 0.00203994 0.000726462 0.00166604 0.00128534 0.00170307 0.00128522 0.00170327 0.000726414 0.00166604 0.00183196 0.00148959 0.0018374 0.00150007 0.00148959 0.000548838 0.00150007 0.000522022 0.0018374 0.00150007 0.00184408 0.00150922 0.00150007 0.000522022 0.00150922 0.000463459 0.00184408 0.00150922 0.00179077 0.00148561 0.00148561 0.000399767 0.00143206 0.00031631 0.00171418 0.00143462 0.00178956 0.00148652 0.00143462 0.000315385 0.00148652 0.000399439 0.00178956 0.00148652 0.00184467 0.00150897 0.00184467 0.00150897 0.00183835 0.00150017 0.00150897 0.000463523 0.00150017 0.000522021 0.00183835 0.00150017 0.00183196 0.00148959 0.00150017 0.000522021 0.00148959 0.000548838 0.000143906 0.000168048 0.000147108 0.000211072 0.000147108 0.000211072 0.000172519 0.000300544 0.00143487 0.000274301 0.00143462 0.000315385 0.00143206 0.00031631 0.00143567 0.000274036 0.000172513 0.000300524 0.000147106 0.000211051 0.000147106 0.000211051 0.000143906 0.000168048 0.000172519 0.000300544 0.000214506 0.000403151 0.000214506 0.000403151 0.000265468 0.000671565 0.000265506 0.000671558 0.000214478 0.000403176 0.000214478 0.000403176 0.000172513 0.000300524 0.00340352 0.00367877 0.0034318 0.00372661 0.00227435 0.00243646 0.00216863 0.00233372 0.00243646 0.00323658 0.00233372 0.00301231 0.00216863 0.00233372 0.00203937 0.00221437 0.00233372 0.00301231 0.00221437 0.00270038 0.000925643 0.00179014 0.000671558 0.00138885 0.00203937 0.00221437 0.00185485 0.00209993 0.00221437 0.00270038 0.00209993 0.0023946 0.00185485 0.00209993 0.00158246 0.00198225 0.00209993 0.0023946 0.00198225 0.00220278 0.00341838 0.00340601 0.00315469 0.00315608 0.00301231 0.00315469 0.00270038 0.00281197 0.00315469 0.00315608 0.00281197 0.00284427 0.000671565 0.00138866 0.000925622 0.00179011 0.00158228 0.0019809 0.00185459 0.00209925 0.0019809 0.00220422 0.00209925 0.00239406 0.00185459 0.00209925 0.00203924 0.0022126 0.00209925 0.00239406 0.0022126 0.00269982 0.00340601 0.0034466 0.00315608 0.00331876 0.00315608 0.00331876 0.00284427 0.00311957 0.00331876 0.00356645 0.00311957 0.00348866 0.00149662 0.00167035 0.00131738 0.00157024 0.00167035 0.00184408 0.00157024 0.00181743 0.00131738 0.00157024 0.00113813 0.00144986 0.00157024 0.00181743 0.00144986 0.00179077 0.00186334 0.00232151 0.00180162 0.00233497 0.00208592 0.00180162 0.00163139 0.00162489 0.00180162 0.00233497 0.00162489 0.00235709 0.00203924 0.0022126 0.00216847 0.00232998 0.0022126 0.00269982 0.00232998 0.00300926 0.00216847 0.00232998 0.00227388 0.00243012 0.00232998 0.00300926 0.00243012 0.00322997 0.00158269 0.00193711 0.0016304 0.00200179 0.0016304 0.00200179 0.00172095 0.00206647 0.00113804 0.00144985 0.0013172 0.00157029 0.00144985 0.00178956 0.00157029 0.00181712 0.0013172 0.00157029 0.00149636 0.00167051 0.00157029 0.00181712 0.00167051 0.00184467 0.000132848 -0.000191777 0.000140989 -0.000187533 -0.000191777 0.000154498 -0.000187533 0.000164864 0.000140989 -0.000187533 0.000169194 -0.000167168 -0.000187533 0.000164864 -0.000167168 0.000175231 0.00207696 0.0020927 0.00199774 0.00216456 0.0020927 0.00210844 0.00216456 0.00204807 0.00199774 0.00216456 0.00193747 0.00198864 0.00216456 0.00204807 0.00198864 0.00203982 0.00172055 0.00207696 0.00163443 0.00199774 0.00163443 0.00199774 0.00158763 0.00193747 0.00284427 0.00311957 0.00254983 0.00287491 0.00254983 0.00287491 0.0023263 0.00261156 0.00287491 0.00321329 0.00261156 0.00276889 0.00233426 0.00261356 0.00256233 0.00288225 0.00261356 0.00276887 0.00288225 0.00321313 0.00256233 0.00288225 0.00286625 0.003134 0.00204226 0.00202677 0.00193648 0.00217501 0.00202677 0.00201128 0.00217501 0.00199171 0.00193648 0.00217501 0.00193711 0.00198005 0.00217501 0.00199171 0.00198005 0.002023 0.000169194 -0.000167168 0.00014735 -0.000127007 -0.000167168 0.000175231 -0.000127007 0.000277907 0.00014735 -0.000127007 0.000473991 2.61807e-05 -0.000127007 0.000277907 2.61807e-05 0.000354912 0.00161833 0.00162449 0.00208447 0.00180164 0.00162449 0.00235696 0.00180164 0.00233487 0.00180164 0.00233487 0.00186334 0.00232151 0.000175231 0.000842474 0.000277907 0.000882603 0.000842474 0.00150972 0.000882603 0.00154667 0.000277907 0.000882603 0.000354912 0.000958793 0.000882603 0.00154667 0.000958793 0.00156878 0.000300544 0.000546558 0.000351847 0.000580775 0.000546558 0.000587165 0.000580775 0.00070936 0.000351847 0.000580775 0.000403151 0.000716197 0.000580775 0.00070936 0.000716197 0.000922592 0.000403151 0.000716197 0.000537358 0.000992284 0.000716197 0.000922592 0.000992284 0.00124069 0.000537358 0.000992284 0.000671565 0.00138866 0.000992284 0.00124069 0.00138866 0.00158228 0.00150972 0.00135508 0.00154667 0.00131248 0.00135508 0.00120044 0.00131248 0.00107856 0.00154667 0.00131248 0.00156878 0.00126353 0.00131248 0.00107856 0.00126353 0.000958273 0.000473843 2.61227e-05 0.000147257 -0.000127046 2.61227e-05 0.000354947 -0.000127046 0.000277923 0.000147257 -0.000127046 0.000169173 -0.000167178 -0.000127046 0.000277923 -0.000167178 0.000175232 0.000354947 0.000958807 0.000277923 0.00088261 0.000958807 0.00156877 0.00088261 0.00154667 0.000277923 0.00088261 0.000175232 0.000842475 0.00088261 0.00154667 0.000842475 0.00150972 0.000169173 -0.000167178 0.000140982 -0.000187537 -0.000167178 0.000175232 -0.000187537 0.000164865 0.000140982 -0.000187537 0.000132848 -0.000191777 -0.000187537 0.000164865 -0.000191777 0.000154498 0.00156877 0.00126352 0.00154667 0.00131248 0.00126352 0.000958261 0.00131248 0.00107856 0.00154667 0.00131248 0.00150972 0.00135508 0.00131248 0.00107856 0.00135508 0.00120044 0.000922592 0.00172095 0.00124069 0.00184527 0.00172095 0.00206647 0.00184527 0.00213534 0.00124069 0.00184527 0.00158228 0.0019809 0.00184527 0.00213534 0.0019809 0.00220422 0.00113813 0.00144986 0.00097493 0.00123843 0.00144986 0.00179077 0.00123843 0.00175214 0.00097493 0.00123843 0.000811727 0.00105711 0.00123843 0.00175214 0.00105711 0.00171148 0.00129741 0.00173398 0.00124892 0.00170431 0.00173398 0.00199452 0.00170431 0.00198437 0.00124892 0.00170431 0.00120044 0.00160229 0.000671558 0.00138885 0.000537367 0.000992441 0.00138885 0.00158246 0.000992441 0.0012414 0.000537367 0.000992441 0.000403176 0.000716331 0.000992441 0.0012414 0.000716331 0.00092371 0.00298584 0.00204199 0.00311062 0.00217268 0.00204199 0.00133823 0.00217268 0.00132647 0.00311062 0.00217268 0.00320341 0.00198984 0.00217268 0.00132647 0.00198984 0.00143173 0.00158246 0.00198225 0.0012414 0.00184575 0.00198225 0.00220278 0.00184575 0.00213987 0.0012414 0.00184575 0.00092371 0.00172055 0.00184575 0.00213987 0.00172055 0.00207696 0.00269982 0.00282434 0.00300926 0.00316802 0.00282434 0.00286625 0.00316802 0.00318581 0.00316802 0.00318581 0.00343056 0.0034406 0.00120044 0.00160229 0.00107856 0.00145006 0.00107856 0.00145006 0.000958273 0.00125263 0.00145006 0.00191957 0.00125263 0.00185269 0.000403176 0.000716331 0.00035185 0.000581051 0.000716331 0.00092371 0.000581051 0.000710075 0.00035185 0.000581051 0.000300524 0.000546787 0.000581051 0.000710075 0.000546787 0.000588061 0.00158222 0.00218779 0.00158491 0.00211503 0.00158491 0.00211503 0.00157306 0.00204226 0.00286625 0.003134 0.00318581 0.0033456 0.003134 0.00349438 0.0033456 0.00359755 0.00318581 0.0033456 0.0034406 0.00348078 0.000958261 0.00125263 0.00107856 0.00145006 0.00125263 0.00185269 0.00145006 0.00191957 0.00107856 0.00145006 0.00120044 0.00160229 0.00120044 0.00160229 0.00124892 0.00170431 0.00124892 0.00170431 0.00129741 0.00173398 0.00170431 0.00198437 0.00173398 0.00199452 0.00133823 0.00137321 0.00132647 0.0013984 0.00137321 0.00123835 0.0013984 0.00128807 0.00132647 0.0013984 0.00143173 0.0014262 0.0013984 0.00128807 0.0014262 0.00133779 0.00157728 0.00204908 0.00158796 0.00214344 0.00158796 0.00214344 0.00158222 0.00218779 0.002023 0.00144116 0.00206038 0.0016793 0.00206038 0.0016793 0.00209777 0.0020061 0.0016793 0.00246115 0.0020061 0.00231028 0.000811869 0.00105646 0.000974952 0.00123744 0.00105646 0.00171418 0.00123744 0.00175187 0.000974952 0.00123744 0.00113804 0.00144985 0.00123744 0.00175187 0.00144985 0.00178956 0.00209777 0.0020061 0.00221601 0.00233275 0.0020061 0.00231028 0.00233275 0.00240538 0.00221601 0.00233275 0.00233426 0.00261356 0.00233275 0.00240538 0.00261356 0.00276887 0.00270038 0.00281197 0.0023946 0.0024805 0.00281197 0.00284427 0.0024805 0.00254983 0.0023946 0.0024805 0.00220278 0.00226454 0.0024805 0.00254983 0.00226454 0.0023263 0.0023263 0.00261156 0.00221737 0.0023309 0.00261156 0.00276889 0.0023309 0.00240262 0.00221737 0.0023309 0.00210844 0.00200062 0.0023309 0.00240262 0.00200062 0.00228074 0.00210844 0.00200062 0.00204807 0.00166741 0.00200062 0.00228074 0.00166741 0.00234365 0.00308531 0.00212707 0.00303225 0.00204242 0.00303225 0.00204242 0.00293811 0.00189158 0.00204242 0.000869882 0.00189158 0.00118064 0.0023959 0.0018246 0.00231279 0.00192851 0.0018246 0.000920488 0.00192851 0.00114561 0.00231279 0.00192851 0.00224121 0.00192917 0.00192851 0.00114561 0.00192917 0.00153351 0.00220422 0.00226924 0.00239406 0.00249044 0.00226924 0.00233426 0.00249044 0.00256233 0.00239406 0.00249044 0.00269982 0.00282434 0.00249044 0.00256233 0.00282434 0.00286625 0.00224546 0.00193537 0.00235516 0.00197329 0.00193537 0.00153256 0.00197329 0.00130188 0.00235516 0.00197329 0.00250363 0.00198452 0.00197329 0.00130188 0.00198452 0.00125797 0.000168048 0.000251388 0.00018956 0.000300608 0.000251388 0.000333375 0.000300608 0.000358714 0.00018956 0.000300608 0.000211072 0.000415366 0.000300608 0.000358714 0.000415366 0.000421654 0.000211072 0.000415366 0.000255808 0.00051367 0.000255808 0.00051367 0.000300544 0.000546558 0.00166425 0.00166432 0.00153062 0.0016067 0.00166432 0.00163787 0.0016067 0.00167057 0.00153062 0.0016067 0.00128522 0.00149424 0.0016067 0.00167057 0.00149424 0.00170327 0.00128534 0.0014942 0.00152955 0.00160625 0.0014942 0.00170307 0.00160625 0.00167074 0.00152955 0.00160625 0.00166177 0.00166335 0.00160625 0.00167074 0.00166335 0.00163841 0.00203806 0.00162899 0.00202467 0.00149254 0.00202467 0.00149254 0.00201128 0.00135881 0.00201128 0.00135881 0.00199171 0.00133117 0.00157306 0.00204226 0.00157064 0.00193648 0.00157064 0.00193648 0.00158269 0.00193711 0.00203982 0.00146239 0.00203988 0.00147158 0.00203988 0.00147158 0.00203994 0.00157399 0.00204908 0.00204451 0.00214344 0.00221863 0.00204451 0.00203994 0.00221863 0.00204944 0.00214344 0.00221863 0.00218779 0.00211293 0.00221863 0.00204944 0.00211293 0.00203806 0.00157399 0.00218262 0.00169444 0.00211816 0.00169444 0.00211816 0.00162899 0.00211851 0.000300524 0.000546787 0.000255787 0.000513895 0.000255787 0.000513895 0.000211051 0.000415514 0.00158763 0.00193747 0.0015673 0.00199327 0.0015673 0.00199327 0.00157728 0.00204908 0.00320221 0.00198892 0.00310949 0.00217198 0.00198892 0.00143146 0.00217198 0.00132646 0.00310949 0.00217198 0.00298584 0.00204199 0.00217198 0.00132646 0.00204199 0.00133823 0.00372661 0.00368215 0.0036937 0.00366213 0.00368215 0.00364694 0.00366213 0.00362385 0.0036937 0.00366213 0.00366078 0.00360772 0.00366213 0.00362385 0.00360772 0.00357927 0.0034148 0.00353779 0.00335455 0.00357601 0.00353779 0.00366078 0.00357601 0.00355921 0.00357601 0.00355921 0.00341838 0.00340601 0.00366078 0.00360772 0.00355921 0.00353949 0.00360772 0.00357927 0.00353949 0.00353767 0.00355921 0.00353949 0.00340601 0.0034466 0.00353949 0.00353767 0.0034466 0.00354247 0.00300815 0.00308531 0.0030623 0.00303225 0.00362385 0.0030623 0.00357927 0.0031304 0.00250363 0.00198452 0.00270493 0.00202057 0.00198452 0.00125797 0.00202057 0.00139653 0.00270493 0.00202057 0.00290331 0.0020694 0.00202057 0.00139653 0.0020694 0.00147955 0.00211851 0.00210378 0.00213372 0.00207838 0.00213372 0.00207838 0.0022519 0.0019985 0.0022519 0.0019985 0.00245797 0.00185016 0.00185016 0.00125281 0.0017172 0.00113032 0.0017172 0.00113032 0.00176985 0.00127474 0.00246115 0.00176985 0.00231028 0.00186145 0.00231028 0.00186145 0.00240538 0.00191173 0.00240538 0.00191173 0.00276887 0.00198896 0.00276889 0.00199086 0.00240262 0.00191216 0.00240262 0.00191216 0.00228074 0.00188704 0.00228074 0.00188704 0.00234365 0.00188272 0.00188272 0.00120842 0.00194609 0.00107032 0.00234221 0.00194609 0.00225241 0.00202641 0.00225241 0.00202641 0.00218262 0.00208046 0.00218262 0.00208046 0.00211816 0.00209755 0.00211816 0.00209755 0.00211851 0.00210378 0.00356645 0.00271138 0.00348866 0.00244615 0.00290331 0.0020694 0.00303673 0.00210543 0.0020694 0.00147955 0.00210543 0.00144502 0.00303673 0.00210543 0.00309243 0.0021217 0.00210543 0.00144502 0.0021217 0.00116935 0.00321329 0.00219544 0.00276889 0.00199086 0.00143146 0.00142609 0.00132646 0.00139839 0.00142609 0.00133784 0.00139839 0.00128809 0.00132646 0.00139839 0.00133823 0.00137321 0.00139839 0.00128809 0.00137321 0.00123835 0.00276887 0.00198896 0.00321313 0.00219716 0.00309243 0.0021217 0.00310557 0.00212414 0.0021217 0.00116935 0.00212414 0.00086231 0.00310557 0.00212414 0.00308531 0.00212707 0.000211051 0.000415514 0.000189549 0.000300666 0.000415514 0.000422156 0.000300666 0.000358955 0.000189549 0.000300666 0.000168048 0.000251388 0.000300666 0.000358955 0.000251388 0.000333375 0.00163039 0.00170535 0.00203716 0.00183819 0.00170535 0.0017203 0.00183819 0.00179037 0.00203716 0.00183819 0.00224546 0.00193537 0.00183819 0.00179037 0.00193537 0.00153256 0.00349438 0.00244664 0.00359755 0.00265737 0.00224121 0.00192917 0.00204123 0.00183846 0.00192917 0.00153351 0.00183846 0.00180966 0.00204123 0.00183846 0.00160999 0.00170423 0.00183846 0.00180966 0.00170423 0.00172055 0.00291875 0.00303673 0.00295693 0.00309243 0.00295693 0.00309243 0.00297472 0.00310557 0.00297472 0.00310557 0.00300815 0.00308531 0.00289571 0.00244531 0.0028411 0.00242118 0.00245344 0.00260137 0.00244531 0.00258574 0.00260137 0.0034318 0.00258574 0.0034233 0.00258574 0.0034233 0.00257514 0.0034148 0.00179077 0.00163819 0.00175214 0.00161507 0.00163819 0.00148561 0.00161507 0.00145884 0.00175214 0.00161507 0.00171148 0.00156536 0.00161507 0.00145884 0.00156536 0.00143206 0.000548838 0.000617112 0.00053543 0.000601622 0.000617112 0.000732978 0.000601622 0.000712663 0.00053543 0.000601622 0.000522022 0.000578553 0.000601622 0.000712663 0.000578553 0.000670854 0.000522022 0.000578553 0.00049274 0.000530528 0.000578553 0.000670854 0.000530528 0.000592079 0.00049274 0.000530528 0.000463459 0.000477825 0.000530528 0.000592079 0.000477825 0.000510363 0.000844251 0.000744245 0.00071115 0.00129759 0.000744245 0.000726462 0.00129759 0.0010059 0.00071115 0.00129759 0.00127306 0.00123971 0.00129759 0.0010059 0.00123971 0.00128534 0.000958273 0.00125263 0.000856356 0.00107456 0.000856356 0.00107456 0.000754439 0.00096681 0.00127332 0.00123984 0.000712012 0.00129795 0.00123984 0.00128522 0.00129795 0.00100582 0.000712012 0.00129795 0.000844745 0.000744493 0.00129795 0.00100582 0.000744493 0.000726414 0.000754439 0.00096681 0.000783154 0.000955524 0.000783154 0.000955524 0.000811869 0.00105646 0.000463459 0.000477825 0.000434252 0.000425638 0.000477825 0.000510363 0.000425638 0.000434642 0.000434252 0.000425638 0.000399767 0.000375412 0.000425638 0.000434642 0.000375412 0.000363101 0.000811727 0.00105711 0.000783105 0.000955338 0.000783105 0.000955338 0.000754483 0.000966837 0.000399767 0.000375412 0.000358039 0.000330927 0.000375412 0.000363101 0.000330927 0.000316369 0.000358039 0.000330927 0.00031631 0.000292502 0.000330927 0.000316369 0.000292502 0.000265506 0.000754483 0.000966837 0.000856372 0.00107455 0.000856372 0.00107455 0.000958261 0.00125263 0.00150922 0.000986338 0.00149742 0.000961497 0.000986338 0.000463459 0.000961497 0.000434252 0.00149742 0.000961497 0.00148561 0.000942691 0.000961497 0.000434252 0.000942691 0.000399767 0.00132766 0.00140935 0.0013314 0.00141049 0.0013314 0.00141049 0.0013443 0.00141284 0.00140935 0.00111587 0.00141049 0.00111431 0.00141049 0.00111431 0.00141284 0.00110946 0.0013443 0.00141284 0.00136922 0.00141565 0.00191957 0.00136922 0.00185269 0.00140049 0.00136922 0.00141565 0.00140049 0.00142097 0.00141284 0.00110946 0.00141565 0.00110046 0.00141565 0.00110046 0.00142097 0.00109529 0.00140049 0.00142097 0.00143623 0.00142546 0.00143623 0.00142546 0.00147208 0.00143487 0.00142097 0.00109529 0.00142546 0.00106206 0.00142546 0.00106206 0.00143487 0.000854586 0.00106206 0.000242465 0.000854586 0.000274301 0.00147208 0.00143487 0.00152056 0.00143474 0.00168686 0.00152056 0.00171418 0.0015744 0.00152056 0.00143474 0.0015744 0.00143462 0.00148652 0.000942978 0.00149774 0.000961275 0.000942978 0.000399439 0.000961275 0.000434342 0.00149774 0.000961275 0.00150897 0.000986246 0.000961275 0.000434342 0.000986246 0.000463523 0.00171148 0.00156536 0.00168742 0.0015177 0.00156536 0.00143206 0.0015177 0.00143387 0.0015177 0.00143387 0.00147244 0.00143567 0.000315385 0.000292733 0.000357412 0.00033109 0.000292733 0.000265468 0.00033109 0.000316331 0.000357412 0.00033109 0.000399439 0.000375502 0.00033109 0.000316331 0.000375502 0.000363091 0.00147244 0.00143567 0.00143616 0.0014253 0.00143616 0.0014253 0.0014005 0.00142101 0.00143567 0.000854855 0.0014253 0.00106202 0.000854855 0.000274036 0.00106202 0.000242531 0.0014253 0.00106202 0.00142101 0.00109531 0.00185269 0.0014005 0.00191957 0.00136922 0.0014005 0.00142101 0.00136922 0.00141564 0.00136922 0.00141564 0.0013443 0.00141285 0.00142101 0.00109531 0.00141564 0.00110047 0.00141564 0.00110047 0.00141285 0.00110946 0.0013443 0.00141285 0.0013314 0.00141049 0.0013314 0.00141049 0.00132766 0.00140935 0.00141285 0.00110946 0.00141049 0.00111432 0.00141049 0.00111432 0.00140935 0.00111587 0.000191293 0.000363005 0.000192741 0.00036189 0.000363005 0.000143906 0.00036189 0.000145507 0.000192741 0.00036189 0.000198566 0.00035968 0.00036189 0.000145507 0.00035968 0.000147108 0.000198566 0.00035968 0.000211531 0.000355851 0.00035968 0.000147108 0.000355851 0.000159814 0.000211531 0.000355851 0.000230475 0.000348016 0.000355851 0.000159814 0.000348016 0.000172519 0.000230475 0.000348025 0.000211542 0.000355859 0.000348025 0.000172513 0.000355859 0.000159809 0.000211542 0.000355859 0.000198571 0.000359688 0.000355859 0.000159809 0.000359688 0.000147106 0.000198571 0.000359688 0.000192744 0.000361895 0.000359688 0.000147106 0.000361895 0.000145506 0.000192744 0.000361895 0.000191293 0.000363005 0.000361895 0.000145506 0.000363005 0.000143906 0.000230475 0.000348016 0.000242465 0.000303486 0.000348016 0.000172519 0.000303486 0.000193513 0.000242465 0.000303486 0.000274301 0.000243684 0.000303486 0.000193513 0.000243684 0.000214506 0.000274036 0.000243757 0.000242531 0.000303479 0.000243757 0.000214478 0.000303479 0.000193495 0.000242531 0.000303479 0.000230475 0.000348025 0.000303479 0.000193495 0.000348025 0.000172513 0.0028411 0.00242118 0.00274157 0.00236043 0.00274157 0.00236043 0.00259612 0.00227435 0.00257514 0.0034148 0.00252814 0.003354