# vtk DataFile Version 3.0
#This file was generated by the deal.II library on 2023/2/27 at 0:39:40
ASCII
DATASET UNSTRUCTURED_GRID

FIELD FieldData 2
CYCLE 1 1 int
96
TIME 1 1 double
0.192
POINTS 37216 double
2.70926 -0.55557 2.70926
2.12865 -0.55557 3.18575
2.62132 -0.707107 2.62132
2.05956 -0.707107 3.08235
2.22228 0 3.32588
1.53073 0 3.69552
2.21161 -0.19509 3.3099
1.52338 -0.19509 3.67777
2.39192 -0.92388 2.39192
1.87932 -0.92388 2.8126
2.25927 -0.980785 2.25927
1.7751 -0.980785 2.65662
2.25927 -0.980785 2.25927
1.7751 -0.980785 2.65662
2.12132 -1 2.12132
1.66671 -1 2.49441
2.12132 1 2.12132
1.66671 1 2.49441
2.25927 0.980785 2.25927
1.7751 0.980785 2.65662
2.25927 0.980785 2.25927
1.7751 0.980785 2.65662
2.39192 0.92388 2.39192
1.87932 0.92388 2.8126
1.0016 0.92388 2.41809
0.510613 0.92388 2.56703
1.07339 0.980785 2.5914
0.547211 0.980785 2.75101
1.07339 0.980785 2.5914
0.547211 0.980785 2.75101
1.14805 1 2.77164
0.585271 1 2.94236
1.14805 -1 2.77164
0.585271 -1 2.94236
1.07339 -0.980785 2.5914
0.547211 -0.980785 2.75101
1.07339 -0.980785 2.5914
0.547211 -0.980785 2.75101
1.0016 -0.92388 2.41809
0.510613 -0.92388 2.56703
1.0016 -0.92388 2.41809
0.510613 -0.92388 2.56703
0.935443 -0.83147 2.25836
0.476885 -0.83147 2.39746
2.17999 0.382683 3.26259
1.5016 0.382683 3.62519
2.21161 0.19509 3.3099
1.52338 0.19509 3.67777
2.81484 0.19509 2.81484
2.21161 0.19509 3.3099
2.82843 0 2.82843
2.22228 0 3.32588
2.21161 0.19509 3.3099
1.52338 0.19509 3.67777
2.22228 0 3.32588
1.53073 0 3.69552
1.27386 0.707107 1.90647
0.877452 0.707107 2.11836
1.35805 0.83147 2.03247
0.935443 0.83147 2.25836
1.98337 0.980785 1.98337
1.55832 0.980785 2.3322
2.12132 1 2.12132
1.66671 1 2.49441
2.12132 -1 2.12132
1.66671 -1 2.49441
1.98337 -0.980785 1.98337
1.55832 -0.980785 2.3322
0.423059 0.55557 -2.12686
0.829861 0.55557 -2.00346
0.447321 0.707107 -2.24884
0.877452 0.707107 -2.11836
1.15343 0.382683 1.72623
0.794497 0.382683 1.91809
1.20477 0.55557 1.80307
0.829861 0.55557 2.00346
1.20477 0.55557 1.80307
0.829861 0.55557 2.00346
1.27386 0.707107 1.90647
0.877452 0.707107 2.11836
0.447321 0.707107 -2.24884
0.877452 0.707107 -2.11836
0.476885 0.83147 -2.39746
0.935443 0.83147 -2.25836
0.476885 0.83147 -2.39746
0.935443 0.83147 -2.25836
0.510613 0.92388 -2.56703
1.0016 0.92388 -2.41809
1.27386 -0.707107 1.90647
0.877452 -0.707107 2.11836
1.20477 -0.55557 1.80307
0.829861 -0.55557 2.00346
1.20477 -0.55557 1.80307
0.829861 -0.55557 2.00346
1.15343 -0.382683 1.72623
0.794497 -0.382683 1.91809
1.84776 1.22465e-16 0.765367
1.66294 1.22465e-16 1.11114
1.86551 0.19509 0.77272
1.67892 0.19509 1.12182
1.91809 0.382683 0.794497
1.72623 0.382683 1.15343
2.00346 0.55557 0.829861
1.80307 0.55557 1.20477
2.00346 0.55557 0.829861
1.80307 0.55557 1.20477
2.11836 0.707107 0.877452
1.90647 0.707107 1.27386
2.11836 -0.707107 0.877452
1.90647 -0.707107 1.27386
2.00346 -0.55557 0.829861
1.80307 -0.55557 1.20477
2.00346 -0.55557 0.829861
1.80307 -0.55557 1.20477
1.91809 -0.382683 0.794497
1.72623 -0.382683 1.15343
3.32588 0 -2.22228
3.69552 0 -1.53073
3.3099 -0.19509 -2.21161
3.67777 -0.19509 -1.52338
3.3099 -0.19509 -2.21161
3.67777 -0.19509 -1.52338
3.26259 -0.382683 -2.17999
3.62519 -0.382683 -1.5016
1.86551 -0.19509 0.77272
1.67892 -0.19509 1.12182
1.84776 1.22465e-16 0.765367
1.66294 1.22465e-16 1.11114
2.11836 0.707107 -0.877452
2.24884 0.707107 -0.447321
2.25836 0.83147 -0.935443
2.39746 0.83147 -0.476885
2.25836 0.83147 -0.935443
2.39746 0.83147 -0.476885
2.41809 0.92388 -1.0016
2.56703 0.92388 -0.510613
2.41809 -0.92388 -1.0016
2.56703 -0.92388 -0.510613
2.25836 -0.83147 -0.935443
2.39746 -0.83147 -0.476885
2.25836 -0.83147 -0.935443
2.39746 -0.83147 -0.476885
2.11836 -0.707107 -0.877452
2.24884 -0.707107 -0.447321
0.510613 -0.92388 -2.56703
1.0016 -0.92388 -2.41809
0.476885 -0.83147 -2.39746
0.935443 -0.83147 -2.25836
0.476885 -0.83147 -2.39746
0.935443 -0.83147 -2.25836
0.447321 -0.707107 -2.24884
0.877452 -0.707107 -2.11836
0.447321 -0.707107 -2.24884
0.877452 -0.707107 -2.11836
0.423059 -0.55557 -2.12686
0.829861 -0.55557 -2.00346
2.05956 -0.707107 -3.08235
2.62132 -0.707107 -2.62132
1.97537 -0.83147 -2.95635
2.51417 -0.83147 -2.51417
1.97537 -0.83147 -2.95635
2.51417 -0.83147 -2.51417
1.87932 -0.92388 -2.8126
2.39192 -0.92388 -2.39192
1.80307 0.55557 -1.20477
2.00346 0.55557 -0.829861
1.90647 0.707107 -1.27386
2.11836 0.707107 -0.877452
1.90647 -0.707107 -1.27386
2.11836 -0.707107 -0.877452
1.80307 -0.55557 -1.20477
2.00346 -0.55557 -0.829861
3.08235 -0.707107 -2.05956
3.42492 -0.707107 -1.41865
2.95635 -0.83147 -1.97537
3.28492 -0.83147 -1.36066
2.51417 -0.83147 -2.51417
2.95635 -0.83147 -1.97537
2.39192 -0.92388 -2.39192
2.8126 -0.92388 -1.87932
2.39192 -0.92388 -2.39192
2.8126 -0.92388 -1.87932
2.25927 -0.980785 -2.25927
2.65662 -0.980785 -1.7751
2.25927 -0.980785 -2.25927
2.65662 -0.980785 -1.7751
2.12132 -1 -2.12132
2.49441 -1 -1.66671
2.25927 0.980785 -2.25927
2.65662 0.980785 -1.7751
2.39192 0.92388 -2.39192
2.8126 0.92388 -1.87932
2.39192 0.92388 -2.39192
2.8126 0.92388 -1.87932
2.51417 0.83147 -2.51417
2.95635 0.83147 -1.97537
2.95635 0.83147 -1.97537
3.28492 0.83147 -1.36066
3.08235 0.707107 -2.05956
3.42492 0.707107 -1.41865
1.87932 -0.92388 -2.8126
2.39192 -0.92388 -2.39192
1.7751 -0.980785 -2.65662
2.25927 -0.980785 -2.25927
1.7751 -0.980785 -2.65662
2.25927 -0.980785 -2.25927
1.66671 -1 -2.49441
2.12132 -1 -2.12132
1.66671 1 -2.49441
2.12132 1 -2.12132
1.7751 0.980785 -2.65662
2.25927 0.980785 -2.25927
1.7751 0.980785 -2.65662
2.25927 0.980785 -2.25927
1.87932 0.92388 -2.8126
2.39192 0.92388 -2.39192
1.87932 0.92388 -2.8126
2.39192 0.92388 -2.39192
1.97537 0.83147 -2.95635
2.51417 0.83147 -2.51417
1.97537 0.83147 -2.95635
2.51417 0.83147 -2.51417
2.05956 0.707107 -3.08235
2.62132 0.707107 -2.62132
-2.62132 -0.707107 -2.62132
-2.05956 -0.707107 -3.08235
-2.51417 -0.83147 -2.51417
-1.97537 -0.83147 -2.95635
-2.51417 -0.83147 -2.51417
-1.97537 -0.83147 -2.95635
-2.39192 -0.92388 -2.39192
-1.87932 -0.92388 -2.8126
-2.39192 -0.92388 -2.39192
-1.87932 -0.92388 -2.8126
-2.25927 -0.980785 -2.25927
-1.7751 -0.980785 -2.65662
-2.25927 0.980785 -2.25927
-1.7751 0.980785 -2.65662
-2.39192 0.92388 -2.39192
-1.87932 0.92388 -2.8126
-2.39192 0.92388 -2.39192
-1.87932 0.92388 -2.8126
-2.51417 0.83147 -2.51417
-1.97537 0.83147 -2.95635
-2.51417 0.83147 -2.51417
-1.97537 0.83147 -2.95635
-2.62132 0.707107 -2.62132
-2.05956 0.707107 -3.08235
3.67777 0.19509 1.52338
3.3099 0.19509 2.21161
3.69552 0 1.53073
3.32588 0 2.22228
3.3099 0.19509 2.21161
2.81484 0.19509 2.81484
3.32588 0 2.22228
2.82843 0 2.82843
2.05956 0.707107 3.08235
1.41865 0.707107 3.42492
2.12865 0.55557 3.18575
1.46624 0.55557 3.53982
3.62519 -0.382683 1.5016
3.26259 -0.382683 2.17999
3.53982 -0.55557 1.46624
3.18575 -0.55557 2.12865
3.26259 -0.382683 2.17999
2.7746 -0.382683 2.7746
3.18575 -0.55557 2.12865
2.70926 -0.55557 2.70926
3.53982 -0.55557 1.46624
3.18575 -0.55557 2.12865
3.42492 -0.707107 1.41865
3.08235 -0.707107 2.05956
-0.829861 0.55557 -2.00346
-0.423059 0.55557 -2.12686
-0.877452 0.707107 -2.11836
-0.447321 0.707107 -2.24884
-0.877452 0.707107 -2.11836
-0.447321 0.707107 -2.24884
-0.935443 0.83147 -2.25836
-0.476885 0.83147 -2.39746
-0.935443 0.83147 -2.25836
-0.476885 0.83147 -2.39746
-1.0016 0.92388 -2.41809
-0.510613 0.92388 -2.56703
-1.0016 -0.92388 -2.41809
-0.510613 -0.92388 -2.56703
-0.935443 -0.83147 -2.25836
-0.476885 -0.83147 -2.39746
-0.935443 -0.83147 -2.25836
-0.476885 -0.83147 -2.39746
-0.877452 -0.707107 -2.11836
-0.447321 -0.707107 -2.24884
-0.877452 -0.707107 -2.11836
-0.447321 -0.707107 -2.24884
-0.829861 -0.55557 -2.00346
-0.423059 -0.55557 -2.12686
1.53073 0 -3.69552
2.22228 0 -3.32588
1.52338 -0.19509 -3.67777
2.21161 -0.19509 -3.3099
2.21161 -0.19509 -3.3099
2.81484 -0.19509 -2.81484
2.17999 -0.382683 -3.26259
2.7746 -0.382683 -2.7746
2.17999 -0.382683 -3.26259
2.7746 -0.382683 -2.7746
2.12865 -0.55557 -3.18575
2.70926 -0.55557 -2.70926
2.12865 -0.55557 -3.18575
2.70926 -0.55557 -2.70926
2.05956 -0.707107 -3.08235
2.62132 -0.707107 -2.62132
2.05956 0.707107 -3.08235
2.62132 0.707107 -2.62132
2.12865 0.55557 -3.18575
2.70926 0.55557 -2.70926
2.12865 0.55557 -3.18575
2.70926 0.55557 -2.70926
2.17999 0.382683 -3.26259
2.7746 0.382683 -2.7746
1.52338 0.19509 -3.67777
2.21161 0.19509 -3.3099
1.53073 0 -3.69552
2.22228 0 -3.32588
3.26259 -0.382683 -2.17999
3.62519 -0.382683 -1.5016
3.18575 -0.55557 -2.12865
3.53982 -0.55557 -1.46624
2.70926 -0.55557 -2.70926
3.18575 -0.55557 -2.12865
2.62132 -0.707107 -2.62132
3.08235 -0.707107 -2.05956
3.18575 -0.55557 -2.12865
3.53982 -0.55557 -1.46624
3.08235 -0.707107 -2.05956
3.42492 -0.707107 -1.41865
2.62132 -0.707107 2.62132
2.05956 -0.707107 3.08235
2.51417 -0.83147 2.51417
1.97537 -0.83147 2.95635
2.51417 -0.83147 2.51417
1.97537 -0.83147 2.95635
2.39192 -0.92388 2.39192
1.87932 -0.92388 2.8126
-2.8126 -0.92388 -1.87932
-2.39192 -0.92388 -2.39192
-2.65662 -0.980785 -1.7751
-2.25927 -0.980785 -2.25927
-2.65662 -0.980785 -1.7751
-2.25927 -0.980785 -2.25927
-2.49441 -1 -1.66671
-2.12132 -1 -2.12132
-2.49441 1 -1.66671
-2.12132 1 -2.12132
-2.65662 0.980785 -1.7751
-2.25927 0.980785 -2.25927
-2.65662 0.980785 -1.7751
-2.25927 0.980785 -2.25927
-2.8126 0.92388 -1.87932
-2.39192 0.92388 -2.39192
2.39192 0.92388 2.39192
1.87932 0.92388 2.8126
2.51417 0.83147 2.51417
1.97537 0.83147 2.95635
2.51417 0.83147 2.51417
1.97537 0.83147 2.95635
2.62132 0.707107 2.62132
2.05956 0.707107 3.08235
3.69552 0 1.53073
3.32588 0 2.22228
3.67777 -0.19509 1.52338
3.3099 -0.19509 2.21161
3.32588 0 2.22228
2.82843 0 2.82843
3.3099 -0.19509 2.21161
2.81484 -0.19509 2.81484
-3.26259 -0.382683 -2.17999
-2.7746 -0.382683 -2.7746
-3.18575 -0.55557 -2.12865
-2.70926 -0.55557 -2.70926
-3.18575 -0.55557 -2.12865
-2.70926 -0.55557 -2.70926
-3.08235 -0.707107 -2.05956
-2.62132 -0.707107 -2.62132
3.26259 0.382683 -2.17999
3.62519 0.382683 -1.5016
3.3099 0.19509 -2.21161
3.67777 0.19509 -1.52338
2.81484 0.19509 -2.81484
3.3099 0.19509 -2.21161
[...]
POINT_DATA 37216
SCALARS U double 1
LOOKUP_TABLE default
0.00119331 0.00178539 0.0024252 0.00288594 0.000187387 0.000760373 0.000367067 0.000948877 0.00551915 0.00559644 0.00717577 0.00695343 0.00717577 0.00695343 0.00874976 0.00815793 0.00874436 0.00831438 0.00725338 0.0071047 0.00725338 0.0071047 0.00565373 0.00573639 0.00549062 -0.000824518 0.00556258 -0.000704297 0.00556258 -0.000704297 0.00542305 -0.000601542 0.00528343 -0.000623868 0.00533929 -0.000766764 0.00533929 -0.000766764 0.00525037 -0.00093783 0.00525037 -0.00093783 0.00496856 -0.00113975 0.000971431 0.00135095 0.000395272 0.000899185 -0.000167448 0.000395272 -0.000384101 0.000187387 0.000395272 0.000899185 0.000187387 0.000760373 0.00986298 0.00476213 0.0100627 0.00519993 0.0100541 0.00927878 0.00874436 0.00831438 0.00874976 0.00815793 0.0101436 0.00913459 -0.00148808 0.00467733 -0.00117774 0.0052266 0.00910008 0.00393311 0.009499 0.00430983 0.009499 0.00430983 0.00986298 0.00476213 -0.00117774 0.0052266 -0.000818837 0.00577258 -0.000818837 0.00577258 -0.000445137 0.00624147 0.00982589 0.0045519 0.00941399 0.00412165 0.00941399 0.00412165 0.00902754 0.00376047 0.00445948 0.00923419 0.00451991 0.00933595 0.00467081 0.00950607 0.00487365 0.00969935 0.00487365 0.00969935 0.00516866 0.00987155 0.00546603 0.0103009 0.00506341 0.00997526 0.00506341 0.00997526 0.00477485 0.00964512 0.000265594 0.000834545 0.000426689 0.00096652 0.000426689 0.00096652 0.000914542 0.00137853 0.00456887 0.00939457 0.00445948 0.00923419 0.00504069 -0.000744265 0.00553702 -0.000530872 0.00553702 -0.000530872 0.00591121 -0.00039069 0.00590076 -0.000361009 0.00552782 -0.000515537 0.00552782 -0.000515537 0.00503503 -0.000735049 -0.000444342 0.006237 -0.000818312 0.00577067 -0.000818312 0.00577067 -0.00117714 0.00522669 -0.00117714 0.00522669 -0.00148748 0.00467824 0.00318433 0.00265885 0.00457381 0.00418971 0.00457381 0.00418971 0.00603941 0.00590389 0.0105608 0.00456275 0.011046 0.00504069 0.0110452 0.00503503 0.0105553 0.00455724 0.00298276 0.00294265 0.0044532 0.00393157 0.00418971 0.0044532 0.00590389 0.00602665 0.00590389 0.00602665 0.00771737 0.0076052 0.00771737 0.0076052 0.00953869 0.00907268 0.00770847 0.00759427 0.00589981 0.0060033 0.00589981 0.0060033 0.00419135 0.00443176 0.00443176 0.00395287 0.00296316 0.00293274 0.00603941 0.00590389 0.00755586 0.00771737 0.00755586 0.00771737 0.0089612 0.00953869 0.00900612 0.00950518 0.00758033 0.00770847 0.00758033 0.00770847 0.00606227 0.00589981 0.00606227 0.00589981 0.0045876 0.00419135 0.0045876 0.00419135 0.00319542 0.00266456 0.00235654 0.0025803 0.00401113 0.00424342 0.00401113 0.00424342 0.00580892 0.00598379 0.00580892 0.00598379 0.00767896 0.007706 0.00767933 0.00770606 0.00580931 0.00598376 0.00580931 0.00598376 0.00401151 0.00424333 0.00401151 0.00424333 0.00235689 0.00258016 0.00145448 0.000556108 0.00127221 0.000347343 0.000556108 -0.000167448 0.000347343 -0.000384101 0.00300171 0.00282832 0.00186022 0.00202849 0.00182591 0.00101751 0.00246116 0.00187936 0.00101751 0.000283827 0.00187936 0.00119331 0.00246116 0.00187936 0.00325265 0.0030276 0.00427663 -0.00169989 0.00502298 -0.00137978 0.00502298 -0.00137978 0.00573031 -0.00114963 0.00573031 -0.00114963 0.0063267 -0.000998888 0.00632656 -0.000998379 0.0057301 -0.00114935 0.0057301 -0.00114935 0.00502277 -0.00137979 0.00502277 -0.00137979 0.00427647 -0.00169999 0.000923592 0.000325413 0.00109939 0.000526427 0.000526427 -0.000263241 0.0010945 0.000361778 0.0010945 0.000361778 0.00201135 0.00136454 0.00201135 0.00136454 0.00318433 0.00265885 0.00319542 0.00266456 0.00202223 0.00137604 0.00202223 0.00137604 0.00110223 0.000377553 0.00109758 0.000538234 0.000923592 0.000325413 0.000914542 0.00137853 0.00178332 0.0020599 0.00136454 0.00178332 0.00265885 0.00298276 0.00178332 0.0020599 0.00298276 0.00294265 0.0024252 0.00288594 0.00389674 0.00419753 0.00389674 0.00419753 0.00551915 0.00559644 0.00631798 0.00580892 0.00806106 0.00767896 0.00806106 0.00767896 0.00968619 0.00957422 0.00968621 0.00957453 0.00806119 0.00767933 0.00806119 0.00767933 0.0063182 0.00580931 0.00565373 0.00573639 0.00406206 0.00431877 0.00406206 0.00431877 0.00259648 0.00300171 0.00127221 0.000347343 0.00140959 0.000500808 0.000347343 -0.000384101 0.000500808 -0.000232907 0.000748863 -0.00018941 0.00174082 0.000926725 0.00174082 0.000926725 0.00303091 0.00235654 0.000914634 0.00136845 0.000428703 0.000964275 -0.00024727 0.000428703 -0.000468594 0.000265594 0.000428703 0.000964275 0.000265594 0.000834545 0.00266456 0.00296316 0.00137604 0.00176993 0.00296316 0.00293274 0.00176993 0.00204281 0.00176993 0.00204281 0.000914634 0.00136845 0.00303091 0.00235654 0.00458933 0.00401113 0.00458933 0.00401113 0.00631798 0.00580892 0.00412165 -0.00150374 0.00376047 -0.00163816 0.0063182 0.00580931 0.00458961 0.00401151 0.00458961 0.00401151 0.00303121 0.00235689 0.00348792 -0.001702 0.00341365 -0.0016818 0.00303121 0.00235689 0.00174109 0.000927006 0.00174109 0.000927006 0.000749076 -0.000189207 0.00974546 0.00525037 0.00994712 0.00496856 0.00325265 0.0030276 0.00413675 0.00439775 0.00439775 0.00389674 0.00581339 0.00551915 0.00581339 0.00551915 0.00720253 0.00717577 0.00824092 0.00874436 0.00718343 0.00725338 0.00718343 0.00725338 0.00589104 0.00565373 0.00589104 0.00565373 0.00452966 0.00406206 0.00422734 0.00452966 0.00340849 0.00318995 0.00452966 0.00406206 0.00318995 0.00259648 0.00318995 0.00259648 0.00202591 0.00135881 0.00259415 0.00202591 0.00191011 0.00112232 0.00202591 0.00135881 0.00112232 0.000413039 0.00574055 0.0095702 0.00586425 0.00908106 0.00908106 0.0100541 0.00824092 0.00874436 0.00840417 0.00874976 0.00933377 0.0101436 0.00933377 0.0101436 0.0100246 0.0112213 -0.00018941 0.000116256 0.000926725 0.00116316 0.000116256 0.000797953 0.00116316 0.00174477 0.000926725 0.00116316 0.00235654 0.0025803 0.00235689 0.00258016 0.000927006 0.00116302 0.000927006 0.00116302 -0.000189207 0.000116136 0.00116302 0.00174403 0.000116136 0.000797398 0.000283827 0.000598369 0.000738568 0.00100794 0.000598369 0.000912585 0.00100794 0.00132389 0.000738568 0.00100794 0.00119331 0.00148935 0.00100794 0.00132389 0.00148935 0.00178539 -0.000518695 -0.00336441 -0.000512127 -0.00337681 -0.00336441 -0.00505575 -0.00337681 -0.00503458 -0.000512127 -0.00337681 -0.000544014 -0.00341054 -0.00337681 -0.00503458 -0.00341054 -0.00502552 -0.000587009 -0.00341879 -0.000623868 -0.00339873 -0.00341879 -0.00500611 -0.00339873 -0.0049617 -0.00116292 -0.00372226 -0.00108278 -0.00366994 -0.00372226 -0.00550617 -0.00366994 -0.00544957 -0.00108278 -0.00366994 -0.000991011 -0.00360876 -0.00366994 -0.00544957 -0.00360876 -0.00538418 -0.000991011 -0.00360876 -0.000885218 -0.00355505 -0.00360876 -0.00538418 -0.00355505 -0.00531972 -0.000885218 -0.00355505 -0.000787294 -0.00350164 -0.00355505 -0.00531972 -0.00350164 -0.00525361 0.00178539 0.00197878 0.00233567 0.00247193 0.00233567 0.00247193 0.00288594 0.00302983 0.00247193 0.00244228 0.00302983 0.00283138 0.000912585 0.00119226 0.00132389 0.00154832 0.00119226 0.00141504 0.00154832 0.00172336 0.00132389 0.00154832 0.00178539 0.00197878 0.00154832 0.00172336 0.00197878 0.00207665 -0.000787294 -0.00350164 -0.000693033 -0.00345616 -0.00350164 -0.00525361 -0.00345616 -0.0051912 -0.000693033 -0.00345616 -0.000620869 -0.00341793 -0.00345616 -0.0051912 -0.00341793 -0.00514166 -0.000620869 -0.00341793 -0.000560313 -0.00338693 -0.00341793 -0.00514166 -0.00338693 -0.00509736 -0.000560313 -0.00338693 -0.000518695 -0.00336441 -0.00338693 -0.00509736 -0.00336441 -0.00505575 0.000760373 0.000298842 0.000854625 0.000313048 0.000854625 0.000313048 0.000948877 0.000404287 -0.00130756 -0.00379995 -0.00131058 -0.00377415 -0.00131058 -0.00377415 -0.00128614 -0.00375768 -0.000601542 -0.00337379 -0.000587428 -0.00337918 -0.00337379 -0.00500313 -0.00337918 -0.00501299 -0.000587428 -0.00337918 -0.000577081 -0.00342094 -0.00337918 -0.00501299 -0.00342094 -0.00504093 0.00114325 0.000519527 0.00141504 0.000674874 -0.000577081 -0.00342094 -0.000587971 -0.0034749 -0.00342094 -0.00504093 -0.0034749 -0.0051203 -0.00105715 -0.00375071 -0.00113107 -0.00377962 -0.00375071 -0.00551769 -0.00377962 -0.00555935 -0.00113107 -0.00377962 -0.00119729 -0.00379338 -0.00128614 -0.00375768 -0.00124074 -0.00373625 -0.00124074 -0.00373625 -0.00116292 -0.00372226 -0.000384101 -9.83571e-05 -0.000308504 -0.000127392 -9.83571e-05 0.000187387 -0.000127392 0.000277227 -0.000308504 -0.000127392 -0.000232907 5.16304e-06 -0.000127392 0.000277227 5.16304e-06 0.000367067 -0.000623402 -0.00350145 -0.00066937 -0.0035158 -0.00350145 -0.00519311 -0.0035158 -0.00521151 -0.00066937 -0.0035158 -0.00073583 -0.00353931 -0.0035158 -0.00521151 -0.00353931 -0.00524651 -0.00073583 -0.00353931 -0.000808274 -0.00359406 -0.00353931 -0.00524651 -0.00359406 -0.00532001 -0.000808274 -0.00359406 -0.000891626 -0.00365735 -0.00359406 -0.00532001 -0.00365735 -0.00539216 -0.00567904 -0.0042651 -0.00563245 -0.00419029 -0.00563245 -0.00419029 -0.00556082 -0.00414965 -0.000232907 5.16304e-06 -4.45051e-06 0.000240194 5.16304e-06 0.000367067 0.000240194 0.000585916 0.000240194 0.000585916 0.000598369 0.000912585 -0.00556082 -0.00414965 -0.00546909 -0.0041413 -0.00546909 -0.0041413 -0.00537364 -0.00414746 0.000367067 0.000657972 0.000585916 0.000898292 0.000657972 0.000948877 0.000898292 0.00114325 0.000585916 0.000898292 0.000912585 0.00119226 0.000898292 0.00114325 0.00119226 0.00141504 0.000674874 -0.00116292 0.000843816 -0.00108278 0.000843816 -0.00108278 0.00107356 -0.000991011 -0.00146822 -0.00113645 -0.00131269 -0.00114538 -0.00339936 -0.00131269 -0.00297801 -0.00119318 -0.00131269 -0.00114538 -0.00119318 -0.00123478 -0.00119729 -0.00379338 -0.00126109 -0.00378317 -0.00379338 -0.00556922 -0.00378317 -0.00558425 -0.00126109 -0.00378317 -0.00131042 -0.00377466 -0.00378317 -0.00558425 -0.00377466 -0.00557242 -0.000891626 -0.00365735 -0.000982534 -0.00368438 -0.000982534 -0.00368438 -0.00105715 -0.00375071 -0.00131042 -0.00377466 -0.00131558 -0.00378886 -0.00377466 -0.00557242 -0.00378886 -0.00557947 -0.00131558 -0.00378886 -0.00130756 -0.00379995 -0.00378886 -0.00557947 -0.00379995 -0.00558618 -0.000824518 -0.00341009 -0.000764407 -0.00338824 -0.00341009 -0.0048836 -0.00338824 -0.00489911 -0.000764407 -0.00338824 -0.000704297 -0.00336962 -0.00338824 -0.00489911 -0.00336962 -0.00492039 -0.000704297 -0.00336962 -0.00065292 -0.00337256 -0.00336962 -0.00492039 -0.00337256 -0.00495579 -0.00065292 -0.00337256 -0.000601542 -0.00337379 -0.00337256 -0.00495579 -0.00337379 -0.00500313 -0.000623868 -0.00339873 -0.000695316 -0.00338699 -0.00339873 -0.0049617 -0.00338699 -0.00493749 -0.000695316 -0.00338699 -0.000766764 -0.00340545 -0.00338699 -0.00493749 -0.00340545 -0.00493087 -0.000766764 -0.00340545 -0.000852297 -0.00342612 -0.00340545 -0.00493087 -0.00342612 -0.00492837 -0.000852297 -0.00342612 -0.00093783 -0.00345159 -0.00342612 -0.00492837 -0.00345159 -0.00491394 -0.00271816 -0.00040022 -0.00274754 -0.000472042 -0.00274754 -0.000472042 -0.00276205 -0.000521595 -0.00579969 -0.00429476 -0.00578359 -0.00430281 -0.00578359 -0.00430281 -0.00575905 -0.00430981 -0.00500313 -0.0051303 -0.00501299 -0.00507304 -0.00501299 -0.00507304 -0.00504093 -0.00503093 -0.00113645 -0.000737522 -0.00114538 -0.000685066 -0.00114538 -0.000685066 -0.00123478 -0.000486898 -0.00297801 -0.00119318 -0.00237615 -0.0011154 -0.00575905 -0.00430981 -0.00572798 -0.00428298 -0.00572798 -0.00428298 -0.00567904 -0.0042651 -0.00504093 -0.00503093 -0.0051203 -0.00506543 -0.0051203 -0.00506543 -0.00519311 -0.00513605 0.00559644 0.0053254 0.00627493 0.00585678 0.0053254 0.00432447 0.00585678 0.00463226 0.00627493 0.00585678 0.00695343 0.00633056 0.00585678 0.00463226 0.00633056 0.00489219 -0.00093783 -0.00345159 -0.00103879 -0.00349436 -0.00345159 -0.00491394 -0.00349436 -0.00491274 -0.00103879 -0.00349436 -0.00113975 -0.00354505 -0.00349436 -0.00491274 -0.00354505 -0.00491882 0.00695343 0.00633056 0.00755568 0.00676264 0.00633056 0.00489219 0.00676264 0.00509668 0.00755568 0.00676264 0.00815793 0.00710751 0.00676264 0.00509668 0.00710751 0.00528343 0.000834545 0.000433306 0.000900532 0.000453749 0.000900532 0.000453749 0.00096652 0.000526721 0.000453749 -0.00110721 0.000526721 -0.00107797 -0.00407031 -0.0025461 -0.00411495 -0.0026332 -0.0025461 -0.000140761 -0.0026332 -0.00028883 -0.00411495 -0.0026332 -0.00417333 -0.00271816 -0.0026332 -0.00028883 -0.00271816 -0.00040022 -0.000140761 0.00141787 -0.00028883 0.0012029 0.00141787 0.00191011 0.0012029 0.00163898 -0.00028883 0.0012029 -0.00040022 0.00104129 0.0012029 0.00163898 0.00104129 0.00145448 -0.00040022 0.00104129 -0.000472042 0.000941611 0.00104129 0.00145448 0.000941611 0.00136335 0.000941611 0.00136335 0.000899135 0.00127221 0.00432447 0.00232071 0.00463226 0.00242259 0.00232071 -0.000518695 0.00242259 -0.000512127 0.00463226 0.00242259 0.00489219 0.0024817 0.00242259 -0.000512127 0.0024817 -0.000544014 0.000267843 0.00228092 0.000376973 0.00254378 0.00228092 0.00325265 0.00254378 0.0036947 0.000376973 0.00254378 0.000473001 0.00277785 0.00254378 0.0036947 0.00277785 0.00413675 0.000473001 0.00277785 0.000543417 0.00296604 0.000543417 0.00296604 0.000589016 0.00312978 0.00489219 0.0024817 0.00509668 0.00245948 0.0024817 -0.000544014 0.00245948 -0.000587009 0.00509668 0.00245948 0.00528343 0.00232978 0.00245948 -0.000587009 0.00232978 -0.000623868 0.00096652 0.000526721 0.00117252 0.000634349 0.000526721 -0.00107797 0.000634349 -0.00100512 0.00117252 0.000634349 0.00137853 0.000824608 0.000634349 -0.00100512 0.000824608 -0.000901466 0.00207665 0.00107356 0.00244228 0.00130919 0.00107356 -0.000991011 0.00130919 -0.000885218 0.00244228 0.00130919 0.00283138 0.00155313 0.00130919 -0.000885218 0.00155313 -0.000787294 0.000589016 0.00312978 0.000613296 0.00325824 0.000613296 0.00325824 0.000617284 0.00333874 0.000617284 0.00333874 0.000606378 0.00335 0.000606378 0.00335 0.000567293 0.00333658 -0.0037437 -0.00228006 -0.00359262 -0.00218015 -0.00228006 0.000267843 -0.00218015 0.000376973 -0.00359262 -0.00218015 -0.00350338 -0.0021103 -0.00218015 0.000376973 -0.0021103 0.000473001 -0.00350338 -0.0021103 -0.0034001 -0.0020501 -0.0021103 0.000473001 -0.0020501 0.000543417 -0.0034001 -0.0020501 -0.00331809 -0.00200626 -0.0020501 0.000543417 -0.00200626 0.000589016 0.00155313 -0.000787294 0.00178017 -0.000693033 0.00178017 -0.000693033 0.00200682 -0.000620869 0.00362115 0.00200682 0.00398556 0.00218315 0.00200682 -0.000620869 0.00218315 -0.000560313 0.00398556 0.00218315 0.00432447 0.00232071 0.00218315 -0.000560313 0.00232071 -0.000518695 0.000541082 0.00341244 0.000608623 0.00342048 0.00341244 0.00579692 0.00342048 0.0056754 0.000608623 0.00342048 0.000647659 0.00339888 0.000647659 0.00339888 0.000665223 0.00332789 0.00339888 0.0054838 0.00332789 0.00524308 0.000665223 0.00332789 0.00066459 0.00320607 -0.00276205 -0.000521595 -0.00276219 -0.000513621 -0.00276219 -0.000513621 -0.0027461 -0.00045009 0.00831438 0.00729765 0.00770954 0.00692267 0.00729765 0.00542305 0.00692267 0.00520411 0.00770954 0.00692267 0.0071047 0.00646522 0.00692267 0.00520411 0.00646522 0.00496574 0.0071047 0.00646522 0.00642055 0.00597007 0.00646522 0.00496574 0.00597007 0.00467673 0.00642055 0.00597007 0.00573639 0.00541986 0.00597007 0.00467673 0.00541986 0.00434409 0.00542305 0.00241075 0.00520411 0.00249555 0.00241075 -0.000601542 0.00249555 -0.000587428 0.00520411 0.00249555 0.00496574 0.00248112 0.00249555 -0.000587428 0.00248112 -0.000577081 0.00496574 0.00248112 0.00467673 0.00239416 0.00248112 -0.000577081 0.00239416 -0.000587971 0.00467673 0.00239416 0.00434409 0.00226902 0.00239416 -0.000587971 0.00226902 -0.000623402 0.000899135 0.00127221 0.000901543 0.0013409 0.000901543 0.0013409 0.000999538 0.00140959 0.00101874 -0.00105715 0.000821113 -0.00113107 0.00165905 0.000821113 0.00135095 0.000625333 -0.00331809 -0.00200626 -0.00325149 -0.00197414 -0.00200626 0.000589016 -0.00197414 0.000613296 -0.00325149 -0.00197414 -0.00319815 -0.00195086 -0.00197414 0.000613296 -0.00195086 0.000617284 -0.00319815 -0.00195086 -0.00316281 -0.00195772 -0.00195086 0.000617284 -0.00195772 0.000606378 -0.00316281 -0.00195772 -0.00317389 -0.00196056 -0.00195772 0.000606378 -0.00196056 0.000567293 0.00066459 0.00320607 0.000635347 0.00307085 0.000635347 0.00307085 0.000588314 0.00287449 0.00307085 0.00458928 0.00287449 0.00422734 0.00434409 0.00226902 0.00398547 0.00211152 0.00226902 -0.000623402 0.00211152 -0.00066937 0.00398547 0.00211152 0.00360683 0.00192453 0.00211152 -0.00066937 0.00192453 -0.00073583 0.00192453 -0.00073583 0.00169532 -0.000808274 0.00169532 -0.000808274 0.00146652 -0.000891626 0.000588314 0.00287449 0.000512014 0.00266637 0.00287449 0.00422734 0.00266637 0.00381792 0.000512014 0.00266637 0.000405391 0.00244229 0.00266637 0.00381792 0.00244229 0.00340849 -0.00318774 -0.00198258 -0.00317898 -0.00195403 -0.00198258 0.000541082 -0.00195403 0.000608623 -0.00317898 -0.00195403 -0.00320126 -0.00192697 -0.00195403 0.000608623 -0.00192697 0.000647659 -0.00320126 -0.00192697 -0.00324055 -0.00193128 -0.00192697 0.000647659 -0.00193128 0.000665223 -0.00324055 -0.00193128 -0.00329308 -0.00194671 -0.00193128 0.000665223 -0.00194671 0.00066459 -0.0027461 -0.00045009 -0.00270292 -0.000360257 -0.00416991 -0.00270292 -0.00410424 -0.00263561 -0.00270292 -0.000360257 -0.00263561 -0.000235257 -0.00045009 0.000999538 -0.000360257 0.0011352 0.000999538 0.00140959 0.0011352 0.00157055 -0.000360257 0.0011352 -0.000235257 0.00132428 0.0011352 0.00157055 0.00132428 0.00182591 -0.00329308 -0.00194671 -0.00335968 -0.00197343 -0.00194671 0.00066459 -0.00197343 0.000635347 -0.00335968 -0.00197343 -0.00344016 -0.00201673 -0.00197343 0.000635347 -0.00201673 0.000588314 -0.00344016 -0.00201673 -0.00354841 -0.00209362 -0.00201673 0.000588314 -0.00209362 0.000512014 -0.00354841 -0.00209362 -0.00367803 -0.00218867 -0.00209362 0.000512014 -0.00218867 0.000405391 0.00135095 0.000625333 0.00112507 0.000453916 0.000625333 -0.00119729 0.000453916 -0.00126109 0.00112507 0.000453916 0.000899185 0.000350274 0.000453916 -0.00126109 0.000350274 -0.00131042 0.000899185 0.000350274 0.000829779 0.000289064 0.000350274 -0.00131042 0.000289064 -0.00131558 0.000829779 0.000289064 0.000760373 0.000298842 0.000289064 -0.00131558 0.000298842 -0.00130756 0.00137853 0.000824608 0.00171921 0.00104067 0.000824608 -0.000901466 0.00104067 -0.000760029 0.00171921 0.00104067 0.0020599 0.00130875 0.00104067 -0.000760029 0.00130875 -0.000616723 0.00282832 0.00146652 0.0024284 0.00123394 0.00146652 -0.000891626 0.00123394 -0.000982534 0.0024284 0.00123394 0.00202849 0.00101874 0.00123394 -0.000982534 0.00101874 -0.00105715 -0.0042651 -0.00309264 -0.00419029 -0.00283852 -0.00309264 -0.00217144 -0.00283852 -0.000845162 -0.00419029 -0.00283852 -0.00414965 -0.00222231 -0.00283852 -0.000845162 -0.00222231 -0.000313025 0.0020599 0.00130875 0.00250127 0.00158571 0.00130875 -0.000616723 0.00158571 -0.0004773 0.00250127 0.00158571 0.00294265 0.00188006 0.00158571 -0.0004773 0.00188006 -0.000334821 -0.00107797 -0.00329325 -0.00100512 -0.00324985 -0.00329325 -0.00419095 -0.00324985 -0.00416991 -0.00100512 -0.00324985 -0.000901466 -0.00317241 -0.00390912 -0.00236234 -0.00399779 -0.00245934 -0.00236234 0.000151857 -0.00245934 1.21398e-05 -0.00245934 1.21398e-05 -0.0025461 -0.000140761 -0.00110721 -0.0033414 -0.00107797 -0.00329325 -0.0033414 -0.00422328 -0.00329325 -0.00419095 0.000413039 0.000688485 9.35437e-05 0.000325778 0.000688485 0.000971431 0.000325778 0.000683352 9.35437e-05 0.000325778 -0.000167448 0.000113912 0.000325778 0.000683352 0.000113912 0.000395272 -0.000901466 -0.00317241 -0.000760029 -0.00309069 -0.00317241 -0.00410424 -0.00309069 -0.00400919 -0.000760029 -0.00309069 -0.000616723 -0.00299875 -0.00218867 0.000405391 -0.00225125 0.000263241 -0.00225125 0.000263241 -0.00236234 0.000151857 -0.000616723 -0.00299875 -0.0004773 -0.00289277 -0.00299875 -0.00393244 -0.00289277 -0.00376484 -0.0004773 -0.00289277 -0.000334821 -0.00282073 -0.00289277 -0.00376