# vtk DataFile Version 3.0
#This file was generated by the deal.II library on 2023/3/1 at 4:17:01
ASCII
DATASET UNSTRUCTURED_GRID

FIELD FieldData 2
CYCLE 1 1 int
40
TIME 1 1 double
0.08
POINTS 4108 double
1.41421 1.22465e-16 -1.41421
2 0 0
1.62132 0.707107 -1.62132
2.29289 0.707107 0
1.62132 0.707107 -1.62132
2.29289 0.707107 0
2.12132 1 -2.12132
3 1 0
2.12132 -1 -2.12132
3 -1 0
1.62132 -0.707107 -1.62132
2.29289 -0.707107 0
1.62132 -0.707107 -1.62132
2.29289 -0.707107 0
1.41421 1.22465e-16 -1.41421
2 0 0
2.62132 -0.707107 -2.62132
3.70711 -0.707107 0
2.12132 -1 -2.12132
3 -1 0
2.12132 1 -2.12132
3 1 0
2.62132 0.707107 -2.62132
3.70711 0.707107 0
2.29289 0.707107 0
2.11836 0.707107 0.877452
2.61732 0.92388 0
2.41809 0.92388 1.0016
2.11836 0.707107 0.877452
1.62132 0.707107 1.62132
2.41809 0.92388 1.0016
1.85072 0.92388 1.85072
2.61732 0.92388 0
2.41809 0.92388 1.0016
3 1 0
2.77164 1 1.14805
3 -1 0
2.77164 -1 1.14805
2.61732 -0.92388 0
2.41809 -0.92388 1.0016
2.61732 -0.92388 0
2.41809 -0.92388 1.0016
2.29289 -0.707107 0
2.11836 -0.707107 0.877452
2.41809 -0.92388 1.0016
1.85072 -0.92388 1.85072
2.11836 -0.707107 0.877452
1.62132 -0.707107 1.62132
3.70711 -0.707107 0
3.42492 -0.707107 1.41865
3.38268 -0.92388 0
3.12519 -0.92388 1.2945
3.42492 -0.707107 1.41865
2.62132 -0.707107 2.62132
3.12519 -0.92388 1.2945
2.39192 -0.92388 2.39192
3.38268 -0.92388 0
3.12519 -0.92388 1.2945
3 -1 0
2.77164 -1 1.14805
3 1 0
2.77164 1 1.14805
3.38268 0.92388 0
3.12519 0.92388 1.2945
3.38268 0.92388 0
3.12519 0.92388 1.2945
3.70711 0.707107 0
3.42492 0.707107 1.41865
3.12519 0.92388 1.2945
2.39192 0.92388 2.39192
3.42492 0.707107 1.41865
2.62132 0.707107 2.62132
1.62132 0.707107 1.62132
0.877452 0.707107 2.11836
1.85072 0.92388 1.85072
1.0016 0.92388 2.41809
0.877452 0.707107 2.11836
1.40399e-16 0.707107 2.29289
1.0016 0.92388 2.41809
1.60264e-16 0.92388 2.61732
1.85072 -0.92388 1.85072
1.0016 -0.92388 2.41809
1.62132 -0.707107 1.62132
0.877452 -0.707107 2.11836
1.0016 -0.92388 2.41809
1.60264e-16 -0.92388 2.61732
0.877452 -0.707107 2.11836
1.40399e-16 -0.707107 2.29289
-1.53073 0 -3.69552
0 0 -4
-1.5016 -0.382683 -3.62519
-7.20805e-16 -0.382683 -3.92388
-1.5016 -0.382683 -3.62519
-7.20805e-16 -0.382683 -3.92388
-1.41865 -0.707107 -3.42492
-6.80984e-16 -0.707107 -3.70711
3.92388 -0.382683 0
3.62519 -0.382683 1.5016
3.70711 -0.707107 0
3.42492 -0.707107 1.41865
3.70711 0.707107 0
3.42492 0.707107 1.41865
3.92388 0.382683 0
3.62519 0.382683 1.5016
-1.41865 0.707107 -3.42492
-6.80984e-16 0.707107 -3.70711
-1.5016 0.382683 -3.62519
-7.20805e-16 0.382683 -3.92388
-1.5016 0.382683 -3.62519
-7.20805e-16 0.382683 -3.92388
-1.53073 0 -3.69552
0 0 -4
1.41421 1.22465e-16 1.41421
0.765367 1.22465e-16 1.84776
1.46804 0.382683 1.46804
0.794497 0.382683 1.91809
0.765367 1.22465e-16 1.84776
0 0 2
0.794497 0.382683 1.91809
1.27126e-16 0.382683 2.07612
1.46804 0.382683 1.46804
0.794497 0.382683 1.91809
1.62132 0.707107 1.62132
0.877452 0.707107 2.11836
0.794497 0.382683 1.91809
1.27126e-16 0.382683 2.07612
0.877452 0.707107 2.11836
1.40399e-16 0.707107 2.29289
1.62132 -0.707107 1.62132
0.877452 -0.707107 2.11836
1.46804 -0.382683 1.46804
0.794497 -0.382683 1.91809
0.877452 -0.707107 2.11836
1.40399e-16 -0.707107 2.29289
0.794497 -0.382683 1.91809
1.27126e-16 -0.382683 2.07612
1.46804 -0.382683 1.46804
0.794497 -0.382683 1.91809
1.41421 1.22465e-16 1.41421
0.765367 1.22465e-16 1.84776
0.794497 -0.382683 1.91809
1.27126e-16 -0.382683 2.07612
0.765367 1.22465e-16 1.84776
0 0 2
1.40399e-16 0.707107 2.29289
-0.877452 0.707107 2.11836
1.60264e-16 0.92388 2.61732
-1.0016 0.92388 2.41809
1.60264e-16 -0.92388 2.61732
-1.0016 -0.92388 2.41809
1.40399e-16 -0.707107 2.29289
-0.877452 -0.707107 2.11836
-1.41421 1.22465e-16 1.41421
-1.84776 1.22465e-16 0.765367
-1.46804 0.382683 1.46804
-1.91809 0.382683 0.794497
-1.46804 -0.382683 1.46804
-1.91809 -0.382683 0.794497
-1.41421 1.22465e-16 1.41421
-1.84776 1.22465e-16 0.765367
-3.69552 0 1.53073
-4 0 0
-3.62519 -0.382683 1.5016
-3.92388 -0.382683 4.80537e-16
-3.62519 -0.382683 1.5016
-3.92388 -0.382683 4.80537e-16
-3.42492 -0.707107 1.41865
-3.70711 -0.707107 4.5399e-16
-2.62132 -0.707107 2.62132
-3.42492 -0.707107 1.41865
-2.39192 -0.92388 2.39192
-3.12519 -0.92388 1.2945
-2.39192 0.92388 2.39192
-3.12519 0.92388 1.2945
-2.62132 0.707107 2.62132
-3.42492 0.707107 1.41865
-3.42492 0.707107 1.41865
-3.70711 0.707107 4.5399e-16
-3.62519 0.382683 1.5016
-3.92388 0.382683 4.80537e-16
-3.62519 0.382683 1.5016
-3.92388 0.382683 4.80537e-16
-3.69552 0 1.53073
-4 0 0
2 0 0
1.84776 1.22465e-16 0.765367
2.07612 0.382683 0
1.91809 0.382683 0.794497
1.84776 1.22465e-16 0.765367
1.41421 1.22465e-16 1.41421
1.91809 0.382683 0.794497
1.46804 0.382683 1.46804
2.07612 0.382683 0
1.91809 0.382683 0.794497
2.29289 0.707107 0
2.11836 0.707107 0.877452
1.91809 0.382683 0.794497
1.46804 0.382683 1.46804
2.11836 0.707107 0.877452
1.62132 0.707107 1.62132
2.29289 -0.707107 0
2.11836 -0.707107 0.877452
2.07612 -0.382683 0
1.91809 -0.382683 0.794497
2.11836 -0.707107 0.877452
1.62132 -0.707107 1.62132
1.91809 -0.382683 0.794497
1.46804 -0.382683 1.46804
2.07612 -0.382683 0
1.91809 -0.382683 0.794497
2 0 0
1.84776 1.22465e-16 0.765367
1.91809 -0.382683 0.794497
1.46804 -0.382683 1.46804
1.84776 1.22465e-16 0.765367
1.41421 1.22465e-16 1.41421
0 0 -2
0.765367 1.22465e-16 -1.84776
-3.81377e-16 0.382683 -2.07612
0.794497 0.382683 -1.91809
0.765367 1.22465e-16 -1.84776
1.41421 1.22465e-16 -1.41421
0.794497 0.382683 -1.91809
1.46804 0.382683 -1.46804
-3.81377e-16 0.382683 -2.07612
0.794497 0.382683 -1.91809
-4.21198e-16 0.707107 -2.29289
0.877452 0.707107 -2.11836
0.794497 0.382683 -1.91809
1.46804 0.382683 -1.46804
0.877452 0.707107 -2.11836
1.62132 0.707107 -1.62132
-4.21198e-16 0.707107 -2.29289
0.877452 0.707107 -2.11836
-4.80793e-16 0.92388 -2.61732
1.0016 0.92388 -2.41809
0.877452 0.707107 -2.11836
1.62132 0.707107 -1.62132
1.0016 0.92388 -2.41809
1.85072 0.92388 -1.85072
-4.80793e-16 0.92388 -2.61732
1.0016 0.92388 -2.41809
0 1 -3
1.14805 1 -2.77164
1.0016 0.92388 -2.41809
1.85072 0.92388 -1.85072
1.14805 1 -2.77164
2.12132 1 -2.12132
0 -1 -3
1.14805 -1 -2.77164
-4.80793e-16 -0.92388 -2.61732
1.0016 -0.92388 -2.41809
1.14805 -1 -2.77164
2.12132 -1 -2.12132
1.0016 -0.92388 -2.41809
1.85072 -0.92388 -1.85072
-4.80793e-16 -0.92388 -2.61732
1.0016 -0.92388 -2.41809
-4.21198e-16 -0.707107 -2.29289
0.877452 -0.707107 -2.11836
1.0016 -0.92388 -2.41809
1.85072 -0.92388 -1.85072
0.877452 -0.707107 -2.11836
1.62132 -0.707107 -1.62132
-4.21198e-16 -0.707107 -2.29289
0.877452 -0.707107 -2.11836
-3.81377e-16 -0.382683 -2.07612
0.794497 -0.382683 -1.91809
0.877452 -0.707107 -2.11836
1.62132 -0.707107 -1.62132
0.794497 -0.382683 -1.91809
1.46804 -0.382683 -1.46804
-3.81377e-16 -0.382683 -2.07612
0.794497 -0.382683 -1.91809
0 0 -2
0.765367 1.22465e-16 -1.84776
0.794497 -0.382683 -1.91809
1.46804 -0.382683 -1.46804
0.765367 1.22465e-16 -1.84776
1.41421 1.22465e-16 -1.41421
0 0 -4
1.53073 0 -3.69552
-7.20805e-16 -0.382683 -3.92388
1.5016 -0.382683 -3.62519
1.53073 0 -3.69552
2.82843 0 -2.82843
1.5016 -0.382683 -3.62519
2.7746 -0.382683 -2.7746
-7.20805e-16 -0.382683 -3.92388
1.5016 -0.382683 -3.62519
-6.80984e-16 -0.707107 -3.70711
1.41865 -0.707107 -3.42492
1.5016 -0.382683 -3.62519
2.7746 -0.382683 -2.7746
1.41865 -0.707107 -3.42492
2.62132 -0.707107 -2.62132
2.82843 0 -2.82843
3.69552 0 -1.53073
2.7746 -0.382683 -2.7746
3.62519 -0.382683 -1.5016
3.69552 0 -1.53073
4 0 0
3.62519 -0.382683 -1.5016
3.92388 -0.382683 0
2.7746 -0.382683 -2.7746
3.62519 -0.382683 -1.5016
2.62132 -0.707107 -2.62132
3.42492 -0.707107 -1.41865
3.62519 -0.382683 -1.5016
3.92388 -0.382683 0
3.42492 -0.707107 -1.41865
3.70711 -0.707107 0
-6.80984e-16 -0.707107 -3.70711
1.41865 -0.707107 -3.42492
-6.21389e-16 -0.92388 -3.38268
1.2945 -0.92388 -3.12519
1.41865 -0.707107 -3.42492
2.62132 -0.707107 -2.62132
1.2945 -0.92388 -3.12519
2.39192 -0.92388 -2.39192
-6.21389e-16 -0.92388 -3.38268
1.2945 -0.92388 -3.12519
0 -1 -3
1.14805 -1 -2.77164
1.2945 -0.92388 -3.12519
2.39192 -0.92388 -2.39192
1.14805 -1 -2.77164
2.12132 -1 -2.12132
0 1 -3
1.14805 1 -2.77164
-6.21389e-16 0.92388 -3.38268
1.2945 0.92388 -3.12519
1.14805 1 -2.77164
2.12132 1 -2.12132
1.2945 0.92388 -3.12519
2.39192 0.92388 -2.39192
-6.21389e-16 0.92388 -3.38268
1.2945 0.92388 -3.12519
-6.80984e-16 0.707107 -3.70711
1.41865 0.707107 -3.42492
1.2945 0.92388 -3.12519
2.39192 0.92388 -2.39192
1.41865 0.707107 -3.42492
2.62132 0.707107 -2.62132
-6.80984e-16 0.707107 -3.70711
1.41865 0.707107 -3.42492
-7.20805e-16 0.382683 -3.92388
1.5016 0.382683 -3.62519
1.41865 0.707107 -3.42492
2.62132 0.707107 -2.62132
1.5016 0.382683 -3.62519
2.7746 0.382683 -2.7746
-7.20805e-16 0.382683 -3.92388
1.5016 0.382683 -3.62519
0 0 -4
1.53073 0 -3.69552
1.5016 0.382683 -3.62519
2.7746 0.382683 -2.7746
1.53073 0 -3.69552
2.82843 0 -2.82843
2.62132 0.707107 -2.62132
3.42492 0.707107 -1.41865
2.7746 0.382683 -2.7746
3.62519 0.382683 -1.5016
3.42492 0.707107 -1.41865
3.70711 0.707107 0
3.62519 0.382683 -1.5016
3.92388 0.382683 0
2.7746 0.382683 -2.7746
3.62519 0.382683 -1.5016
2.82843 0 -2.82843
3.69552 0 -1.53073
3.62519 0.382683 -1.5016
3.92388 0.382683 0
3.69552 0 -1.53073
4 0 0
2.41809 0.92388 1.0016
2.17622 0.92388 1.4541
2.5914 0.980785 1.07339
2.3322 0.980785 1.55832
2.17622 0.92388 1.4541
1.85072 0.92388 1.85072
2.3322 0.980785 1.55832
1.98337 0.980785 1.98337
2.5914 0.980785 1.07339
2.3322 0.980785 1.55832
2.77164 1 1.14805
2.49441 1 1.66671
2.3322 0.980785 1.55832
1.98337 0.980785 1.98337
2.49441 1 1.66671
2.12132 1 2.12132
2.77164 -1 1.14805
2.49441 -1 1.66671
2.5914 -0.980785 1.07339
2.3322 -0.980785 1.55832
2.49441 -1 1.66671
2.12132 -1 2.12132
2.3322 -0.980785 1.55832
1.98337 -0.980785 1.98337
2.5914 -0.980785 1.07339
2.3322 -0.980785 1.55832
2.41809 -0.92388 1.0016
2.17622 -0.92388 1.4541
2.3322 -0.980785 1.55832
1.98337 -0.980785 1.98337
2.17622 -0.92388 1.4541
1.85072 -0.92388 1.85072
-1.41421 1.22465e-16 -1.41421
[...]
POINT_DATA 4108
SCALARS U double 1
LOOKUP_TABLE default
9.06951e-07 0.000831374 -9.95e-06 0.000764021 -9.95e-06 0.000764021 -9.33286e-05 0.000519657 -9.33288e-05 0.000519658 -9.95083e-06 0.000764023 -9.95083e-06 0.000764023 9.06951e-07 0.000831374 -3.71026e-05 0.000278238 -9.33288e-05 0.000519658 -9.33286e-05 0.000519657 -3.70686e-05 0.000278161 0.000764021 0.00109796 0.000641839 0.000872261 0.00109796 0.00148675 0.000872261 0.00145961 0.000641839 0.000872261 0.000519657 0.000659741 0.000519658 0.000659638 0.00064184 0.00087227 0.00064184 0.00087227 0.000764023 0.00109795 0.00087227 0.00145959 0.00109795 0.00148677 0.000278238 0.000350824 0.000398948 0.000550077 0.000350824 0.00137925 0.000550077 0.00136803 0.000398948 0.000550077 0.000519658 0.000659638 0.000519657 0.000659741 0.000398909 0.000550767 0.000398909 0.000550767 0.000278161 0.000351699 0.000550767 0.00136977 0.000351699 0.00138987 0.00148675 0.00159619 0.00145961 0.00110163 0.00159619 0.00195329 0.00110163 0.00188313 0.00145959 0.00110162 0.00148677 0.00159621 0.00110162 0.00188314 0.00159621 0.00195329 0.00129743 0.00227821 0.00131355 0.0023691 0.00131355 0.0023691 0.000608087 0.00224905 0.000124495 0.000165376 0.000278238 0.000350824 0.000278161 0.000351699 0.000124413 0.000165546 0.000608087 0.00224905 0.00131355 0.0023691 0.00131355 0.0023691 0.00129743 0.00227821 0.00185071 0.00191538 0.00168811 0.00185944 0.00191538 0.00193771 0.00185944 0.00194855 0.00168811 0.00185944 0.00148675 0.00159619 0.00185944 0.00194855 0.00159619 0.00195329 0.00148677 0.00159621 0.00168811 0.00185944 0.00159621 0.00195329 0.00185944 0.00194855 0.00168811 0.00185944 0.00185071 0.00191538 0.00185944 0.00194855 0.00191538 0.00193771 0.00195329 0.00150143 0.00188313 0.00112031 0.00188314 0.00112031 0.00195329 0.00150143 0.000351734 0.000345514 0.000292464 0.000611411 0.000292465 0.000611411 0.000351734 0.000345514 0.000663254 -0.000155332 0.000673614 -0.00017217 0.000673614 -0.00017217 0.000686576 -0.000159538 0.0015733 0.000686576 0.00144693 0.000900156 0.00144421 0.000899769 0.0015725 0.000686517 0.000686517 -0.000159522 0.000673621 -0.000172172 0.000673621 -0.000172172 0.000663254 -0.000155332 0.000831374 0.0013259 0.000797697 0.00123779 0.0013259 0.00185071 0.00123779 0.00168811 0.000797697 0.00123779 0.000764021 0.00109796 0.00123779 0.00168811 0.00109796 0.00148675 0.000764023 0.00109795 0.000797698 0.00123778 0.00109795 0.00148677 0.00123778 0.00168811 0.000797698 0.00123778 0.000831374 0.0013259 0.00123778 0.00168811 0.0013259 0.00185071 0.00231133 0.000253656 0.00232542 0.000258135 0.000253656 9.06951e-07 0.000258135 -4.52153e-06 0.00232542 0.000258135 0.00236207 0.00026659 0.000258135 -4.52153e-06 0.00026659 -9.95e-06 0.00236207 0.00026659 0.00251174 0.000311699 0.00026659 -9.95e-06 0.000311699 -5.16393e-05 0.00251174 0.000311699 0.00257617 0.000367035 0.000311699 -5.16393e-05 0.000367035 -9.33286e-05 0.00257618 0.000367031 0.00251174 0.000311697 0.000367031 -9.33288e-05 0.000311697 -5.16398e-05 0.00251174 0.000311697 0.00236207 0.000266591 0.000311697 -5.16398e-05 0.000266591 -9.95083e-06 0.00236207 0.000266591 0.00232542 0.000258135 0.000266591 -9.95083e-06 0.000258135 -4.52194e-06 0.00232542 0.000258135 0.00231133 0.000253656 0.000258135 -4.52194e-06 0.000253656 9.06951e-07 0.00227821 0.000241484 0.0023691 0.000254661 0.000241484 -6.17187e-06 0.000254661 -3.57332e-05 0.0023691 0.000254661 0.00224905 0.000325486 0.000254661 -3.57332e-05 0.000325486 -3.71026e-05 -6.17187e-06 8.34743e-05 -3.57332e-05 0.000139524 8.34743e-05 5.69412e-05 0.000139524 0.000124495 -3.57332e-05 0.000139524 -3.71026e-05 0.000120568 0.000139524 0.000124495 0.000120568 0.000278238 0.00224905 0.000325486 0.00254505 0.00032 0.000325486 -3.71026e-05 0.00032 -6.52157e-05 0.00254505 0.00032 0.00257618 0.000367031 0.00032 -6.52157e-05 0.000367031 -9.33288e-05 0.00257617 0.000367035 0.00254505 0.000320001 0.000367035 -9.33286e-05 0.000320001 -6.51986e-05 0.00254505 0.000320001 0.00224905 0.000325483 0.000320001 -6.51986e-05 0.000325483 -3.70686e-05 0.00224905 0.000325483 0.0023691 0.000254665 0.000325483 -3.70686e-05 0.000254665 -3.57378e-05 0.0023691 0.000254665 0.00227821 0.000241484 0.000254665 -3.57378e-05 0.000241484 -6.17187e-06 -3.70686e-05 0.000120546 -3.57378e-05 0.000139552 0.000120546 0.000278161 0.000139552 0.000124413 -3.57378e-05 0.000139552 -6.17187e-06 8.34743e-05 0.000139552 0.000124413 8.34743e-05 5.69412e-05 0.000872261 0.00116594 0.000766001 0.00113967 0.00116594 0.00145961 0.00113967 0.00147346 0.000766001 0.00113967 0.000659741 0.00109781 0.00113967 0.00147346 0.00109781 0.00147986 0.000659638 0.00109783 0.000765954 0.00113958 0.00109783 0.00148003 0.00113958 0.00147326 0.000765954 0.00113958 0.00087227 0.00116593 0.00113958 0.00147326 0.00116593 0.00145959 0.00094921 0.00101426 0.000921017 0.000982763 0.000921017 0.000982763 0.000896597 0.000930802 0.000896597 0.000930802 0.000921017 0.000982763 0.000921017 0.000982763 0.00094921 0.00101426 0.00142475 0.0013461 0.00176178 0.00150764 0.0013461 0.00190741 0.00150764 0.00152544 0.00176178 0.00150764 0.00195409 0.00147648 0.00150764 0.00152544 0.00147648 0.000845473 0.00190741 0.00165926 0.00152544 0.00150792 0.00165926 0.00236207 0.00150792 0.0024369 0.00152544 0.00150792 0.000845473 0.00133072 0.00150792 0.0024369 0.00133072 0.00251174 0.00182899 0.00151359 0.00201848 0.00163334 0.00201848 0.00163334 0.00208074 0.0016399 0.00163334 0.00142475 0.0016399 0.00176178 0.00042163 0.00090732 0.000414671 0.000906232 0.00090732 0.00154668 0.000906232 0.00155346 0.000414671 0.000906232 0.00040226 0.000905756 0.000906232 0.00155346 0.000905756 0.0015646 0.000905756 0.0015646 0.000924188 0.00156667 0.000924188 0.00156667 0.000913997 0.0015733 0.000913997 0.0015733 0.000888078 0.00151011 0.000431894 0.000888078 0.000468184 0.000861616 0.000888078 0.00151011 0.000861616 0.00144693 0.00208074 0.0016399 0.00201848 0.00163334 0.0016399 0.00176178 0.00163334 0.00142475 0.00201848 0.00163334 0.00182899 0.00151359 0.000468184 0.000861616 0.000533774 0.000855144 0.000861616 0.00144693 0.000855144 0.00131541 0.000533774 0.000855144 0.000663484 0.000862919 0.000855144 0.00131541 0.000862919 0.00114462 0.000663429 0.000863315 0.000539936 0.000860298 0.000863315 0.00114453 0.000860298 0.00131435 0.000539936 0.000860298 0.000480975 0.000870936 0.000860298 0.00131435 0.000870936 0.00144421 0.000480975 0.000870936 0.00043838 0.000892193 0.000870936 0.00144421 0.000892193 0.00150836 0.000892193 0.00150836 0.00091403 0.0015725 0.00091403 0.0015725 0.000924045 0.00156663 0.000924045 0.00156663 0.000905841 0.0015646 0.000401943 0.000905841 0.000414452 0.000906276 0.000905841 0.0015646 0.000906276 0.00155345 0.000414452 0.000906276 0.00042163 0.00090732 0.000906276 0.00155345 0.00090732 0.00154668 0.000345514 0.000907283 0.000478463 0.00098345 0.000907283 0.00185402 0.00098345 0.00183933 0.000478463 0.00098345 0.000611411 0.0012243 0.00098345 0.00183933 0.0012243 0.00178097 0.000611411 0.0012243 0.000478463 0.00098345 0.0012243 0.00178097 0.00098345 0.00183933 0.000478463 0.00098345 0.000345514 0.000907283 0.00098345 0.00183933 0.000907283 0.00185402 0.00195409 0.00147648 0.00197834 0.00131655 0.00147648 0.000845473 0.00131655 0.000407003 0.00197834 0.00131655 0.00199418 0.00118199 0.00131655 0.000407003 0.00118199 0.000317735 0.00110163 0.00149238 0.000926383 0.00118215 0.00149238 0.00188313 0.00118215 0.00185162 0.000926383 0.00118215 0.000812938 0.000958566 0.000845473 0.00133072 0.000407003 0.00092575 0.00133072 0.00251174 0.00092575 0.00254395 0.000407003 0.00092575 0.000317735 0.000142596 0.00092575 0.00254395 0.000142596 0.00257617 0.000292464 0.000451938 0.000326155 0.000346714 0.000451938 0.000611411 0.000346714 0.00084581 0.000326155 0.000346714 0.000369985 0.000366933 0.000346714 0.00084581 0.000366933 0.000940344 0.000611411 0.0012243 0.00084581 0.00147588 0.0012243 0.00178097 0.00147588 0.00165253 0.000369985 0.000366933 0.000503278 0.000478737 0.000366933 0.000940344 0.000478737 0.00102522 0.000503278 0.000478737 0.000700483 0.000694671 0.000478737 0.00102522 0.000694671 0.00110773 0.00102522 0.00167156 0.00110773 0.00159972 0.000700483 0.000694671 0.000925664 0.000966857 0.000694671 0.00110773 0.000966857 0.00120384 0.000925664 0.000966857 0.00114453 0.0011797 0.000966857 0.00120384 0.0011797 0.00121002 0.000813033 0.000958551 0.000926236 0.00118218 0.000926236 0.00118218 0.00110162 0.00149238 0.00118218 0.00185161 0.00149238 0.00188314 7.47577e-05 0.000621203 9.49381e-05 0.000629231 0.000621203 0.00175066 0.000629231 0.00172302 9.49381e-05 0.000629231 0.000165376 0.000657307 0.000629231 0.00172302 0.000657307 0.00165323 0.000165376 0.000657307 0.0002581 0.00074125 0.0002581 0.00074125 0.000350824 0.000865038 0.00074125 0.00151484 0.000865038 0.00137925 0.000550077 0.000959051 0.000604857 0.00103781 0.000959051 0.00136803 0.00103781 0.00142697 0.000604857 0.00103781 0.000659638 0.00109783 0.00103781 0.00142697 0.00109783 0.00148003 0.000659741 0.00109781 0.000605254 0.00103753 0.00109781 0.00147986 0.00103753 0.00142598 0.000605254 0.00103753 0.000550767 0.000960268 0.00103753 0.00142598 0.000960268 0.00136977 0.000351699 0.000870783 0.000258623 0.000745133 0.000870783 0.00138987 0.000745133 0.00151199 0.000258623 0.000745133 0.000165546 0.000656517 0.000745133 0.00151199 0.000656517 0.00164503 0.00199418 0.00118199 0.00197834 0.00131655 0.00118199 0.000317734 0.00131655 0.000407002 0.00197834 0.00131655 0.00195409 0.00147648 0.00131655 0.000407002 0.00147648 0.000845473 0.000165546 0.000656517 9.49669e-05 0.000628782 0.000656517 0.00164503 0.000628782 0.00171955 9.49669e-05 0.000628782 7.47577e-05 0.000621203 0.000628782 0.00171955 0.000621203 0.00175066 0.000317734 0.000142596 0.000407002 0.000925751 0.000142596 0.00257618 0.000925751 0.00254396 0.000407002 0.000925751 0.000845473 0.00133072 0.000925751 0.00254396 0.00133072 0.00251174 0.000818092 0.000761899 0.000796281 0.000834484 0.00195409 0.00147648 0.00176178 0.00150764 0.00147648 0.000845473 0.00150764 0.00152544 0.00176178 0.00150764 0.00142475 0.0013461 0.00150764 0.00152544 0.0013461 0.00190741 0.000795399 0.000834618 0.000818215 0.000761863 0.000845473 0.00133072 0.00152544 0.00150792 0.00133072 0.00251174 0.00150792 0.0024369 0.00152544 0.00150792 0.00190741 0.00165926 0.00150792 0.0024369 0.00165926 0.00236207 0.00145961 0.00128062 0.00147346 0.00121165 0.00128062 0.00110163 0.00121165 0.000926383 0.00147346 0.00121165 0.00147986 0.00116421 0.00121165 0.000926383 0.00116421 0.000812938 -0.000155332 -0.000102961 -0.000163751 -0.000117902 -0.000102961 -3.46857e-06 -0.000117902 -2.80279e-05 -0.000163751 -0.000117902 -0.00017217 -0.000149484 -0.000117902 -2.80279e-05 -0.000149484 -7.93214e-05 0.000686576 0.000263519 0.000793366 0.000228999 0.000263519 -0.000159538 0.000228999 -7.99665e-05 0.000793366 0.000228999 0.000900156 0.000332474 0.000228999 -7.99665e-05 0.000332474 -4.33243e-06 -3.46857e-06 0.00090225 -2.80279e-05 0.000862365 0.00090225 0.00180724 0.000862365 0.00175474 -2.80279e-05 0.000862365 -7.93214e-05 0.000812516 0.000862365 0.00175474 0.000812516 0.00170609 0.00144693 0.00117354 0.00131541 0.00124233 0.00117354 0.000900156 0.00124233 0.00107308 0.00131541 0.00124233 0.00114462 0.00117973 0.00124233 0.00107308 0.00117973 0.00121002 -0.00017217 -0.000149484 -0.000165854 -0.000174767 -0.000149484 -7.93214e-05 -0.000174767 -0.000127156 -0.000165854 -0.000174767 -0.000159538 -0.000123446 -0.000174767 -0.000127156 -0.000123446 -0.000100684 0.000900156 0.000332474 0.00107308 0.000597356 0.000332474 -4.33243e-06 0.000597356 0.000103457 0.00107308 0.000597356 0.00121002 0.000984874 0.000597356 0.000103457 0.000984874 0.000273546 0.00127084 0.000495202 0.00123227 0.000525126 0.00123227 0.000525126 0.00118419 0.000604256 -7.93214e-05 0.000812516 -0.000127156 0.000822679 0.000812516 0.00170609 0.000822679 0.00175851 -0.000127156 0.000822679 -0.000100684 0.000812066 0.000822679 0.00175851 0.000812066 0.0018972 0.00138987 0.00115596 0.00151199 0.00122617 0.00115596 0.00080283 0.00122617 0.000709121 0.00151199 0.00122617 0.00164503 0.00127994 0.00122617 0.000709121 0.00127994 0.000598016 0.00127994 0.000598016 0.00127955 0.0005238 0.00127955 0.0005238 0.00127084 0.000495202 0.00048688 0.00195327 0.00042966 0.00196939 0.00042966 0.00196939 0.000417045 0.00197907 0.00188313 0.00150172 0.00185162 0.00143334 0.00150172 0.00112031 0.00143334 0.000866725 0.00185162 0.00143334 0.00182961 0.00139221 0.00143334 0.000866725 0.00139221 0.000663429 0.00182961 0.00139208 0.00185161 0.00143335 0.00139208 0.000663484 0.00143335 0.000867111 0.00185161 0.00143335 0.00188314 0.00150172 0.00143335 0.000867111 0.00150172 0.00112031 0.00148003 0.00116433 0.00147326 0.00121148 0.00116433 0.000813033 0.00121148 0.000926236 0.00147326 0.00121148 0.00145959 0.0012806 0.00121148 0.000926236 0.0012806 0.00110162 0.00195974 0.00170338 0.00195637 0.001703 0.00170338 0.00231133 0.001703 0.00231837 0.00195637 0.001703 0.00195843 0.00170655 0.001703 0.00231837 0.00170655 0.00232542 0.00195843 0.00170655 0.00198299 0.00170497 0.00170655 0.00232542 0.00170497 0.00234374 0.00198299 0.00170497 0.00190741 0.00165926 0.00170497 0.00234374 0.00165926 0.00236207 0.00190741 0.00165926 0.00198299 0.00170497 0.00165926 0.00236207 0.00170497 0.00234374 0.00198299 0.00170497 0.00195843 0.00170655 0.00170497 0.00234374 0.00170655 0.00232542 0.00195843 0.00170655 0.00195637 0.001703 0.00170655 0.00232542 0.001703 0.00231837 0.00195637 0.001703 0.00195974 0.00170338 0.001703 0.00231837 0.00170338 0.00231133 0.00180724 0.00130812 0.00175474 0.00127023 0.00130812 0.00129743 0.00127023 0.00130549 0.00175474 0.00127023 0.00170609 0.0012086 0.00127023 0.00130549 0.0012086 0.00131355 0.00197907 0.00145289 0.00197832 0.00144462 0.00145289 0.00042163 0.00144462 0.000414671 0.00197832 0.00144462 0.001961 0.00142586 0.00144462 0.000414671 0.00142586 0.00040226 0.001961 0.00142586 0.0019371 0.00140067 0.00142586 0.00040226 0.00140067 0.000416603 0.0019371 0.00140067 0.00190951 0.00138461 0.00140067 0.000416603 0.00138461 0.000428213 0.00190951 0.00138461 0.00188129 0.00138113 0.00138461 0.000428213 0.00138113 0.000431894 0.00188129 0.00138113 0.00185717 0.00137882 0.00138113 0.000431894 0.00137882 0.000468184 0.00185717 0.00137882 0.00183837 0.00138012 0.00137882 0.000468184 0.00138012 0.000533774 0.00183837 0.00138012 0.00182961 0.00139208 0.00138012 0.000533774 0.00139208 0.000663484 0.00182961 0.00139221 0.00183825 0.00138088 0.00139221 0.000663429 0.00138088 0.000539936 0.00183825 0.00138088 0.00185701 0.00137999 0.00138088 0.000539936 0.00137999 0.000480975 0.00185701 0.00137999 0.0018814 0.00138168 0.00137999 0.000480975 0.00138168 0.00043838 0.0018814 0.00138168 0.00190979 0.0013848 0.00138168 0.00043838 0.0013848 0.000428544 0.00190979 0.0013848 0.00193653 0.0014012 0.0013848 0.000428544 0.0014012 0.00041637 0.00193653 0.0014012 0.00195327 0.00142771 0.0014012 0.00041637 0.00142771 0.000401943 0.00195327 0.00142771 0.00196939 0.00144581 0.00142771 0.000401943 0.00144581 0.000414452 0.00196939 0.00144581 0.00197907 0.00145289 0.00144581 0.000414452 0.00145289 0.00042163 0.00120384 0.0013778 0.00121002 0.000984872 0.00114462 0.00117973 0.00092566 0.000966827 0.00117973 0.00121002 0.000966827 0.00120384 0.00092566 0.000966827 0.000700485 0.000694672 0.000966827 0.00120384 0.000694672 0.00110773 0.00121002 0.000984874 0.00120384 0.0013778 0.000700485 0.000694672 0.000503271 0.000478737 0.000694672 0.00110773 0.000478737 0.00102522 0.000503271 0.000478737 0.000369983 0.000366933 0.000478737 0.00102522 0.000366933 0.000940344 0.00110773 0.00159972 0.00102522 0.00167156 0.000369983 0.000366933 0.000326156 0.000346714 0.000366933 0.000940344 0.000346714 0.00084581 0.000326156 0.000346714 0.000292465 0.000451938 0.000346714 0.00084581 0.000451938 0.000611411 0.00084581 0.00147588 0.000611411 0.0012243 0.00147588 0.00165253 0.0012243 0.00178097 0.00170609 0.0012086 0.00175851 0.00126536 0.0012086 0.00131355 0.00126536 0.000960818 0.00175851 0.00126536 0.0018972 0.00134698 0.00126536 0.000960818 0.00134698 0.000608087 0.00114453 0.0011797 0.00131435 0.00124158 0.0011797 0.00121002 0.00124158 0.00107299 0.00131435 0.00124158 0.00144421 0.00117199 0.00124158 0.00107299 0.00117199 0.000899769 0.00121002 0.000984872 0.00107299 0.00059735 0.000984872 0.000273546 0.00059735 0.000103459 0.00107299 0.00059735 0.000899769 0.000332502 0.00059735 0.000103459 0.000332502 -4.34063e-06 5.69412e-05 6.79647e-05 9.07181e-05 9.658e-05 6.79647e-05 7.47577e-05 9.658e-05 9.49381e-05 9.07181e-05 9.658e-05 0.000124495 0.000144936 9.658e-05 9.49381e-05 0.000144936 0.000165376 0.000899769 0.000332502 0.000793143 0.000229 0.000332502 -4.34063e-06 0.000229 -7.99684e-05 0.000793143 0.000229 0.000686517 0.000263497 0.000229 -7.99684e-05 0.000263497 -0.000159522 0.00137925 0.00111861 0.00137364 0.00110292 0.00111861 0.000797328 0.00110292 0.000837828 0.00137364 0.00110292 0.00136803 0.0011188 0.00110292 0.000837828 0.0011188 0.000818092 0.00136803 0.0011188 0.00142697 0.00113552 0.0011188 0.000818092 0.00113552 0.000796281 0.00142697 0.00113552 0.00148003 0.00116433 0.00113552 0.000796281 0.00116433 0.000813033 0.00185402 0.00211506 0.00183933 0.00210874 0.00211506 0.00111849 0.00210874 0.00123255 0.00183933 0.00210874 0.00178097 0.0020767 0.00210874 0.00123255 0.0020767 0.00151912 0.00111849 0.00100428 0.00123255 0.00108528 0.00100428 0.00094921 0.00108528 0.000921017 0.00123255 0.00108528 0.00151912 0.00128999 0.00108528 0.000921017 0.00128999 0.000896597 0.00178097 0.0020767 0.00165253 0.00199027 0.0020767 0.00151912 0.00199027 0.00182899 0.00165253 0.00199027 0.00141816 0.00186725 0.00199027 0.00182899 0.00186725 0.00201848 0.00141816 0.00186725 0.00111892 0.001749 0.00186725 0.00201848 0.001749 0.00208074 0.00111892 0.001749 0.00082171 0.00166578 0.001749 0.00208074 0.00166578 0.00210774 0.00082171 0.00166578 0.000548072 0.00162378 0.00166578 0.00210774 0.00162378 0.00208658 0.000548072 0.00162378 0.000273546 0.00152861 0.00162378 0.00208658 0.00152861 0.00183985 0.000273546 0.00152861 0.000548072 0.00162378 0.00152861 0.00183985 0.00162378 0.00208658 0.000548072 0.00162378 0.00082171 0.00166578 0.00162378 0.00208658 0.00166578 0.00210774 0.00082171 0.00166578 0.00111892 0.001749 0.00166578 0.00210774 0.001749 0.00208074 0.00111892 0.001749 0.00141816 0.00186725 0.001749 0.00208074 0.00186725 0.00201848 0.00141816 0.00186725 0.00165253 0.00199027 0.00186725 0.00201848 0.00199027 0.00182899 0.00165253 0.00199027 0.00178097 0.0020767 0.00199027 0.00182899 0.0020767 0.00151912 0.00178097 0.0020767 0.00183933 0.00210874 0.0020767 0.00151912 0.00210874 0.00123255 0.00183933 0.00210874 0.00185402 0.00211506 0.00210874 0.00123255 0.00211506 0.00111849 0.00151912 0.00128999 0.00123255 0.00108528 0.00128999 0.000896597 0.00108528 0.000921017 0.00123255 0.00108528 0.00111849 0.00100428 0.00108528 0.000921017 0.00100428 0.00094921 -4.33243e-06 0.000572608 0.000103457 0.00112966 0.000103459 0.00112965 -4.34063e-06 0.00057261 0.00147986 0.00116421 0.00142598 0.00113455 0.00116421 0.000812938 0.00113455 0.000795399 0.00142598 0.00113455 0.00136977 0.00111834 0.00113455 0.000795399 0.00111834 0.000818215 0.00136977 0.00111834 0.00137982 0.0011106 0.00111834 0.000818215 0.0011106 0.000842178 0.00137982 0.0011106 0.00138987 0.00115596 0.0011106 0.000842178 0.00115596 0.00080283 0.000124413 0.000144979 9.0677e-05 9.64835e-05 0.000144979 0.000165546 9.64835e-05 9.49669e-05 9.0677e-05 9.64835e-05 5.69412e-05 6.79647e-05 9.64835e-05 9.49669e-05 6.79647e-05 7.47577e-05 0.0018972 0.00134698 0.00209118 0.00133079 0.00134698 0.000608087 0.00133079 0.000696875 0.00209118 0.00133079 0.00219481 0.00134896 0.00133079 0.000696875 0.00134896 0.000468676 0.000608087 0.00142857 0.000696875 -7.61774e-08 0.00142857 0.00224905 -7.61774e-08 0.00239705 0.000696875 -7.61774e-08 0.000468676 -0.00011994 -7.61774e-08 0.00239705 -0.00011994 0.00254505 0.00219481 0.00134896 0.00211481 0.00124253 0.00134896 0.