# vtk DataFile Version 3.0
#This file was generated by the deal.II library on 2023/2/27 at 0:40:57
ASCII
DATASET UNSTRUCTURED_GRID

FIELD FieldData 2
CYCLE 1 1 int
143
TIME 1 1 double
0.286
POINTS 75460 double
-1.12182 0.19509 -1.67892
-0.77272 0.19509 -1.86551
-1.15343 0.382683 -1.72623
-0.794497 0.382683 -1.91809
-1.15343 -0.382683 -1.72623
-0.794497 -0.382683 -1.91809
-1.12182 -0.19509 -1.67892
-0.77272 -0.19509 -1.86551
-2.05956 -0.707107 3.08235
-2.62132 -0.707107 2.62132
-1.97537 -0.83147 2.95635
-2.51417 -0.83147 2.51417
-1.87932 -0.92388 2.8126
-2.39192 -0.92388 2.39192
-1.7751 -0.980785 2.65662
-2.25927 -0.980785 2.25927
-1.87932 0.92388 2.8126
-2.39192 0.92388 2.39192
-1.97537 0.83147 2.95635
-2.51417 0.83147 2.51417
-1.97537 0.83147 2.95635
-2.51417 0.83147 2.51417
-2.05956 0.707107 3.08235
-2.62132 0.707107 2.62132
-2.70926 0.55557 2.70926
-3.18575 0.55557 2.12865
-2.7746 0.382683 2.7746
-3.26259 0.382683 2.17999
2.95635 -0.83147 1.97537
2.51417 -0.83147 2.51417
2.8126 -0.92388 1.87932
2.39192 -0.92388 2.39192
-2.05956 0.707107 3.08235
-2.62132 0.707107 2.62132
-2.12865 0.55557 3.18575
-2.70926 0.55557 2.70926
-1.46624 0.55557 3.53982
-2.12865 0.55557 3.18575
-1.5016 0.382683 3.62519
-2.17999 0.382683 3.26259
-2.12865 0.55557 3.18575
-2.70926 0.55557 2.70926
-2.17999 0.382683 3.26259
-2.7746 0.382683 2.7746
2.70926 -0.55557 2.70926
2.43066 -0.55557 2.96177
2.66792 -0.634393 2.66792
2.39357 -0.634393 2.91658
2.66792 -0.634393 2.66792
2.39357 -0.634393 2.91658
2.62132 -0.707107 2.62132
2.35176 -0.707107 2.86563
0.659929 -0.92388 3.31769
0.331561 -0.92388 3.36639
0.641903 -0.95694 3.22706
0.322504 -0.95694 3.27444
0.641903 -0.95694 3.22706
0.322504 -0.95694 3.27444
0.623331 -0.980785 3.1337
0.313174 -0.980785 3.17971
0.623331 -0.980785 3.1337
0.313174 -0.980785 3.17971
0.604393 -0.995185 3.03849
0.303659 -0.995185 3.0831
0.604393 -0.995185 3.03849
0.303659 -0.995185 3.0831
0.585271 -1 2.94236
0.294051 -1 2.98555
0.765511 -0.382683 3.84848
0.384607 -0.382683 3.90498
0.757325 -0.471397 3.80733
0.380495 -0.471397 3.86323
0.757325 -0.471397 3.80733
0.380495 -0.471397 3.86323
0.747483 -0.55557 3.75785
0.37555 -0.55557 3.81302
0.747483 -0.55557 3.75785
0.37555 -0.55557 3.81302
0.736078 -0.634393 3.70051
0.36982 -0.634393 3.75484
0.736078 -0.634393 3.70051
0.36982 -0.634393 3.75484
0.723221 -0.707107 3.63588
0.36336 -0.707107 3.68926
1.80614 -0.55557 3.37905
1.46624 -0.55557 3.53982
1.77858 -0.634393 3.3275
1.44387 -0.634393 3.48581
1.88559 0 3.52769
1.53073 0 3.69552
1.88332 -0.0980171 3.52344
1.52889 -0.0980171 3.69107
1.88332 -0.0980171 3.52344
1.52889 -0.0980171 3.69107
1.87653 -0.19509 3.51074
1.52338 -0.19509 3.67777
0.723221 -0.707107 3.63588
0.36336 -0.707107 3.68926
0.709035 -0.77301 3.56456
0.356233 -0.77301 3.61689
0.709035 -0.77301 3.56456
0.356233 -0.77301 3.61689
0.693657 -0.83147 3.48725
0.348507 -0.83147 3.53845
0.693657 -0.83147 3.48725
0.348507 -0.83147 3.53845
0.677236 -0.881921 3.40469
0.340256 -0.881921 3.45468
0.677236 -0.881921 3.40469
0.340256 -0.881921 3.45468
0.659929 -0.92388 3.31769
0.331561 -0.92388 3.36639
1.53073 0 3.69552
1.16114 0 3.82776
1.52889 -0.0980171 3.69107
1.15974 -0.0980171 3.82315
1.15974 -0.0980171 3.82315
0.779422 -0.0980171 3.91842
1.15556 -0.19509 3.80937
0.776613 -0.19509 3.9043
0.585271 1 2.94236
0.294051 1 2.98555
0.604393 0.995185 3.03849
0.303659 0.995185 3.0831
0.604393 0.995185 3.03849
0.303659 0.995185 3.0831
0.623331 0.980785 3.1337
0.313174 0.980785 3.17971
1.52338 -0.19509 3.67777
1.15556 -0.19509 3.80937
1.51426 -0.290285 3.65574
1.14864 -0.290285 3.78656
1.15556 -0.19509 3.80937
0.776613 -0.19509 3.9043
1.14864 -0.290285 3.78656
0.771961 -0.290285 3.88091
0.623331 0.980785 3.1337
0.313174 0.980785 3.17971
0.641903 0.95694 3.22706
0.322504 0.95694 3.27444
0.747483 0.55557 3.75785
0.37555 0.55557 3.81302
0.757325 0.471397 3.80733
0.380495 0.471397 3.86323
0.776613 -0.19509 3.9043
0.390185 -0.19509 3.96162
0.771961 -0.290285 3.88091
0.387848 -0.290285 3.93789
2.53452 -0.0980171 3.08832
2.21961 -0.0980171 3.32187
2.52538 -0.19509 3.07719
2.21161 -0.19509 3.3099
0.677236 0.881921 3.40469
0.340256 0.881921 3.45468
0.693657 0.83147 3.48725
0.348507 0.83147 3.53845
0.693657 0.83147 3.48725
0.348507 0.83147 3.53845
0.709035 0.77301 3.56456
0.356233 0.77301 3.61689
0.709035 0.77301 3.56456
0.356233 0.77301 3.61689
0.723221 0.707107 3.63588
0.36336 0.707107 3.68926
2.81484 -0.19509 2.81484
2.52538 -0.19509 3.07719
2.79798 -0.290285 2.79798
2.51026 -0.290285 3.05876
2.51026 -0.290285 3.05876
2.19836 -0.290285 3.29008
2.48928 -0.382683 3.0332
2.17999 -0.382683 3.26259
2.21161 -0.19509 3.3099
1.87653 -0.19509 3.51074
2.19836 -0.290285 3.29008
1.86529 -0.290285 3.48971
2.19836 -0.290285 3.29008
1.86529 -0.290285 3.48971
2.17999 -0.382683 3.26259
1.8497 -0.382683 3.46055
1.86529 -0.290285 3.48971
1.51426 -0.290285 3.65574
1.8497 -0.382683 3.46055
1.5016 -0.382683 3.62519
-1.53073 0 3.69552
-1.88559 0 3.52769
-1.52889 -0.0980171 3.69107
-1.88332 -0.0980171 3.52344
-1.52889 -0.0980171 3.69107
-1.88332 -0.0980171 3.52344
-1.52338 -0.19509 3.67777
-1.87653 -0.19509 3.51074
0.765511 0.382683 3.84848
0.384607 0.382683 3.90498
0.771961 0.290285 3.88091
0.387848 0.290285 3.93789
0.771961 0.290285 3.88091
0.387848 0.290285 3.93789
0.776613 0.19509 3.9043
0.390185 0.19509 3.96162
0.776613 0.19509 3.9043
0.390185 0.19509 3.96162
0.779422 0.0980171 3.91842
0.391597 0.0980171 3.97595
0.779422 0.0980171 3.91842
0.391597 0.0980171 3.97595
0.780361 0 3.92314
0.392069 0 3.98074
0.510613 0.92388 2.56703
0.256542 0.92388 2.60471
0.528639 0.95694 2.65765
0.265599 0.95694 2.69667
0.528639 0.95694 2.65765
0.265599 0.95694 2.69667
0.547211 0.980785 2.75101
0.274929 0.980785 2.7914
0.547211 0.980785 2.75101
0.274929 0.980785 2.7914
0.566149 0.995185 2.84622
0.284444 0.995185 2.88801
0.566149 0.995185 2.84622
0.284444 0.995185 2.88801
0.585271 1 2.94236
0.294051 1 2.98555
0.585271 -1 2.94236
0.294051 -1 2.98555
0.566149 -0.995185 2.84622
0.284444 -0.995185 2.88801
0.566149 -0.995185 2.84622
0.284444 -0.995185 2.88801
0.547211 -0.980785 2.75101
0.274929 -0.980785 2.7914
0.547211 -0.980785 2.75101
0.274929 -0.980785 2.7914
0.528639 -0.95694 2.65765
0.265599 -0.95694 2.69667
0.528639 -0.95694 2.65765
0.265599 -0.95694 2.69667
0.510613 -0.92388 2.56703
0.256542 -0.92388 2.60471
-0.294051 1 2.98555
-0.585271 1 2.94236
-0.303659 0.995185 3.0831
-0.604393 0.995185 3.03849
-0.303659 0.995185 3.0831
-0.604393 0.995185 3.03849
-0.313174 0.980785 3.17971
-0.623331 0.980785 3.1337
-2.22228 0 3.32588
-2.53757 0 3.09204
-2.21961 -0.0980171 3.32187
-2.53452 -0.0980171 3.08832
-2.53757 0 3.09204
-2.82843 0 2.82843
-2.53452 -0.0980171 3.08832
-2.82502 -0.0980171 2.82502
-2.21961 -0.0980171 3.32187
-2.53452 -0.0980171 3.08832
-2.21161 -0.19509 3.3099
-2.52538 -0.19509 3.07719
-2.53452 -0.0980171 3.08832
-2.82502 -0.0980171 2.82502
-2.52538 -0.19509 3.07719
-2.81484 -0.19509 2.81484
-1.52338 -0.19509 3.67777
-1.87653 -0.19509 3.51074
-1.51426 -0.290285 3.65574
-1.86529 -0.290285 3.48971
-1.51426 -0.290285 3.65574
-1.86529 -0.290285 3.48971
-1.5016 -0.382683 3.62519
-1.8497 -0.382683 3.46055
-1.86529 -0.290285 3.48971
-2.19836 -0.290285 3.29008
-1.8497 -0.382683 3.46055
-2.17999 -0.382683 3.26259
-0.313174 0.980785 3.17971
-0.623331 0.980785 3.1337
-0.322504 0.95694 3.27444
-0.641903 0.95694 3.22706
-0.322504 0.95694 3.27444
-0.641903 0.95694 3.22706
-0.331561 0.92388 3.36639
-0.659929 0.92388 3.31769
-2.21161 -0.19509 3.3099
-2.52538 -0.19509 3.07719
-2.19836 -0.290285 3.29008
-2.51026 -0.290285 3.05876
-2.52538 -0.19509 3.07719
-2.81484 -0.19509 2.81484
-2.51026 -0.290285 3.05876
-2.79798 -0.290285 2.79798
-2.19836 -0.290285 3.29008
-2.51026 -0.290285 3.05876
-2.17999 -0.382683 3.26259
-2.48928 -0.382683 3.0332
1.87932 -0.92388 2.8126
1.59459 -0.92388 2.98326
1.82798 -0.95694 2.73577
1.55103 -0.95694 2.90177
0.510613 -0.92388 2.56703
0.256542 -0.92388 2.60471
0.493306 -0.881921 2.48002
0.247846 -0.881921 2.51643
0.493306 -0.881921 2.48002
0.247846 -0.881921 2.51643
0.476885 -0.83147 2.39746
0.239596 -0.83147 2.43266
1.4604 -0.995185 2.73221
1.18556 -0.995185 2.86219
1.41419 -1 2.64576
1.14805 -1 2.77164
0.476885 -0.83147 2.39746
0.239596 -0.83147 2.43266
0.461507 -0.77301 2.32015
0.23187 -0.77301 2.35422
0.461507 -0.77301 2.32015
0.23187 -0.77301 2.35422
0.447321 -0.707107 2.24884
0.224743 -0.707107 2.28185
3.69552 0 -1.53073
3.82776 0 -1.16114
3.69107 -0.0980171 -1.52889
3.82315 -0.0980171 -1.15974
3.82776 0 -1.16114
3.92314 0 -0.780361
3.82315 -0.0980171 -1.15974
3.91842 -0.0980171 -0.779422
3.82315 -0.0980171 -1.15974
3.91842 -0.0980171 -0.779422
3.80937 -0.19509 -1.15556
3.9043 -0.19509 -0.776613
3.90498 0.382683 0.384607
3.84848 0.382683 0.765511
3.93789 0.290285 0.387848
3.88091 0.290285 0.771961
3.93789 0.290285 0.387848
3.88091 0.290285 0.771961
3.96162 0.19509 0.390185
3.9043 0.19509 0.776613
1.2945 -0.92388 3.12519
0.981941 -0.92388 3.23703
1.25914 -0.95694 3.03983
0.955119 -0.95694 3.14861
0.981941 -0.92388 3.23703
0.659929 -0.92388 3.31769
0.955119 -0.95694 3.14861
0.641903 -0.95694 3.22706
0.955119 -0.95694 3.14861
0.641903 -0.95694 3.22706
0.927486 -0.980785 3.05751
0.623331 -0.980785 3.1337
3.54748 -0.707107 1.07612
3.42492 -0.707107 1.41865
3.4779 -0.77301 1.05501
3.35774 -0.77301 1.39082
3.56456 -0.77301 0.709035
3.4779 -0.77301 1.05501
3.48725 -0.83147 0.693657
3.40247 -0.83147 1.03213
3.40247 -0.83147 1.03213
3.28492 -0.83147 1.36066
3.32192 -0.881921 1.00769
3.20715 -0.881921 1.32845
0.927486 -0.980785 3.05751
0.623331 -0.980785 3.1337
0.899307 -0.995185 2.96462
0.604393 -0.995185 3.03849
0.899307 -0.995185 2.96462
0.604393 -0.995185 3.03849
0.870854 -1 2.87082
0.585271 -1 2.94236
3.67777 -0.19509 -1.52338
3.80937 -0.19509 -1.15556
3.65574 -0.290285 -1.51426
3.78656 -0.290285 -1.14864
3.78656 -0.290285 -1.14864
3.88091 -0.290285 -0.771961
3.75492 -0.382683 -1.13904
3.84848 -0.382683 -0.765511
3.14861 -0.95694 0.955119
3.03983 -0.95694 1.25914
3.05751 -0.980785 0.927486
[...]
POINT_DATA 75460
SCALARS U double 1
LOOKUP_TABLE default
0.0135684 0.00579438 0.0143147 0.00613167 0.0143147 0.00613167 0.0135684 0.00579437 -0.00177438 -0.000645518 -0.000293804 0.000891231 0.00192559 0.00308997 0.00327672 0.00631116 0.00205401 0.00326908 5.17638e-05 0.000893547 5.17638e-05 0.000893547 -0.00173007 -0.000509992 -0.00180982 0.000676156 -0.00299996 -0.000426274 0.00637275 0.00617545 0.00834096 0.00837763 -0.00173007 -0.000509992 -0.00270904 -0.00180982 -0.0025982 -0.00270904 -0.00328105 -0.00363655 -0.00270904 -0.00180982 -0.00363655 -0.00299996 0.00249381 0.0026109 0.00329337 0.0033854 0.00329337 0.0033854 0.00418136 0.00424997 -0.000418629 -0.00404772 -0.000358733 -0.00399309 -0.000358733 -0.00399309 -0.000315366 -0.0039527 -0.000315366 -0.0039527 -0.00030506 -0.00391877 -0.00030506 -0.00391877 -0.00032387 -0.00389177 -0.00155168 -0.00476106 -0.0014207 -0.00467908 -0.0014207 -0.00467908 -0.00126975 -0.00458717 -0.00126975 -0.00458717 -0.00110919 -0.00448801 -0.00110919 -0.00448801 -0.000929383 -0.00439069 0.00308799 0.00278825 0.00373696 0.0033001 0.00102004 0.00112274 0.00109625 0.00118096 0.00109625 0.00118096 0.00129372 0.00134643 -0.000929383 -0.00439069 -0.00077186 -0.00428956 -0.00077186 -0.00428956 -0.000624819 -0.00419721 -0.000624819 -0.00419721 -0.000509757 -0.00411452 -0.000509757 -0.00411452 -0.000418629 -0.00404772 0.00112274 0.000358627 0.00118096 0.000414854 0.000414854 -0.00178208 0.000515682 -0.00173196 -0.000313069 -0.00390452 -0.000315638 -0.00395179 -0.000315638 -0.00395179 -0.00034794 -0.00401181 0.00134643 0.000515682 0.00160334 0.000689967 0.000515682 -0.00173196 0.000689967 -0.00164303 -0.00034794 -0.00401181 -0.00041074 -0.0040895 -0.00134615 -0.00469698 -0.00147574 -0.00478402 -0.00173196 -0.00488711 -0.00164303 -0.00483474 0.000388566 0.000731108 0.000580963 0.000931386 -0.000598156 -0.00422465 -0.000711745 -0.00430723 -0.000711745 -0.00430723 -0.000864344 -0.00440294 -0.000864344 -0.00440294 -0.00102543 -0.00450957 0.000420633 0.000580963 0.000749862 0.000908073 0.000908073 0.00125091 0.00136522 0.0016871 0.000931386 0.00129372 0.00125091 0.00159688 0.00125091 0.00159688 0.0016871 0.00200952 0.00159688 0.00160334 0.00200952 0.00191773 -0.0039272 -0.00412533 -0.0039089 -0.00408523 -0.0039089 -0.00408523 -0.00379935 -0.00395704 -0.0015942 -0.00484916 -0.00171399 -0.00489349 -0.00171399 -0.00489349 -0.00178305 -0.00492627 -0.00178305 -0.00492627 -0.00182165 -0.00494042 -0.00182165 -0.00494042 -0.00182986 -0.00493537 -0.000491497 -0.00378759 -0.000420526 -0.00380773 -0.000420526 -0.00380773 -0.000370827 -0.00383284 -0.000370827 -0.00383284 -0.000330867 -0.00386639 -0.000330867 -0.00386639 -0.000313069 -0.00390452 -0.00032387 -0.00389177 -0.000362484 -0.00387265 -0.000362484 -0.00387265 -0.000422481 -0.00385864 -0.000422481 -0.00385864 -0.00049117 -0.00385177 -0.00049117 -0.00385177 -0.000578729 -0.00384914 -0.00561814 -0.00372124 -0.0056652 -0.00371898 -0.0056652 -0.00371898 -0.00570635 -0.00378926 -0.00432289 -0.00468239 -0.00428724 -0.00464858 -0.00468239 -0.00401853 -0.00464858 -0.00400912 -0.00428724 -0.00464858 -0.00415545 -0.00450671 -0.00464858 -0.00400912 -0.00450671 -0.00351885 -0.00379935 -0.00395704 -0.00360801 -0.00375127 -0.00360801 -0.00375127 -0.00335092 -0.00344533 -0.00375127 -0.0039373 -0.00344533 -0.00365477 -0.00570635 -0.00378926 -0.00578012 -0.00384308 -0.00578012 -0.00384308 -0.00586628 -0.00392655 -0.00415545 -0.00450671 -0.0039373 -0.00426571 -0.00450671 -0.00351885 -0.00426571 -0.00311592 -0.0039373 -0.00426571 -0.00365477 -0.00379877 0.00811623 0.00748377 0.00906132 0.0082168 -0.000578729 -0.00384914 -0.000677425 -0.00385107 -0.000677425 -0.00385107 -0.000779939 -0.00385741 0.00952576 0.00717568 0.0100385 0.00743752 -0.000779939 -0.00385741 -0.000878274 -0.00386926 -0.000878274 -0.00386926 -0.00100692 -0.00387708 0.00101643 0.000590707 0.00107783 0.000645272 0.000590707 -0.0012785 0.000645272 -0.00123406 0.000645272 -0.00123406 0.000801101 -0.00112009 -0.00328141 -0.000245405 -0.00333772 -0.000359136 -0.00333772 -0.000359136 -0.00337926 -0.000445942 0.0059996 0.00329733 0.00645533 0.00350053 0.00329733 -0.000418629 0.00350053 -0.000358733 0.00350053 -0.000358733 0.00361757 -0.000315366 0.00297521 0.00437458 0.00334793 0.00496636 0.000414246 0.00334793 0.000544866 0.00366727 0.00366727 0.00557281 0.00396076 0.00612779 0.00361757 -0.000315366 0.00371196 -0.00030506 0.00371196 -0.00030506 0.00376647 -0.00032387 0.00125357 0.000801101 0.00153303 0.00104164 0.00104164 -0.000954752 0.00133974 -0.000753157 0.00442825 0.00715962 0.00461397 0.00757785 0.000895618 0.00461397 0.000951751 0.00470298 -0.00301929 0.000254219 -0.00293532 0.000414246 -0.00293532 0.000414246 -0.00284501 0.000544866 -0.00284501 0.000544866 -0.00274632 0.000638098 -0.00274632 0.000638098 -0.00265243 0.000737695 0.00386178 0.00212034 0.00441251 0.00244233 0.00212034 -0.000929383 0.00244233 -0.00077186 0.00441251 0.00244233 0.00497133 0.0027642 0.00244233 -0.00077186 0.0027642 -0.000624819 0.00552058 0.00305322 0.0059996 0.00329733 0.00305322 -0.000509757 0.00329733 -0.000418629 0.000961572 0.00480105 0.000956755 0.00475356 0.000956755 0.00475356 0.000925974 0.00464977 0.00475356 0.00792967 0.00464977 0.00759916 0.0101222 0.0075181 0.00959912 0.00723892 0.00910851 0.0082549 0.00814804 0.0075 0.00381596 -0.000313069 0.00374189 -0.000315638 0.00374189 -0.000315638 0.00362855 -0.00034794 0.00362855 -0.00034794 0.00349335 -0.00041074 0.00647761 0.00349335 0.00600143 0.00326965 0.00349335 -0.00041074 0.00326965 -0.000474896 0.00270061 0.00138604 0.00223527 0.00108133 0.00108133 -0.00147574 0.000836388 -0.0015942 -0.00265243 0.000737695 -0.00255978 0.000825679 -0.00255978 0.000825679 -0.00247023 0.000895618 -0.00247023 0.000895618 -0.00238807 0.000951751 -0.00238807 0.000951751 -0.00230617 0.000963198 0.00428072 0.00668972 0.0040221 0.00617997 0.0007146 0.0040221 0.000601865 0.00370023 0.00600143 0.00326965 0.00550186 0.00301495 0.00326965 -0.000474896 0.00301495 -0.000598156 0.00493378 0.00271133 0.00433686 0.0023828 0.00271133 -0.000711745 0.0023828 -0.000864344 0.00433686 0.0023828 0.00378166 0.00204734 0.0023828 -0.000864344 0.00204734 -0.00102543 0.000601865 0.00370023 0.000469918 0.00339747 0.000469918 0.00339747 0.000344095 0.00305699 0.00339747 0.00498798 0.00305699 0.00438055 -0.00232416 0.000961572 -0.00238846 0.000956755 -0.00238846 0.000956755 -0.00246 0.000925974 -0.00246 0.000925974 -0.00253728 0.000868933 -0.00253728 0.000868933 -0.00262105 0.000794553 -0.00337478 -0.000396443 -0.0033262 -0.000296616 -0.00262105 0.000794553 -0.00271317 0.0007146 -0.00271317 0.0007146 -0.00280271 0.000601865 -0.00280271 0.000601865 -0.00288882 0.000469918 -0.00288882 0.000469918 -0.00297667 0.000344095 0.00183433 0.000836388 0.0015214 0.000613838 0.0016795 -0.00117236 0.00138604 -0.00134615 -0.0031385 3.64318e-05 -0.00321689 -0.00010721 -0.0012785 -0.00400603 -0.00123406 -0.00398904 -0.00123406 -0.00398904 -0.00112009 -0.00395244 0.00138293 0.00162545 0.000923119 0.00120381 0.000817052 0.000923119 0.000469867 0.000593231 -0.000753157 -0.00382206 -0.000587052 -0.00371334 -0.00297667 0.000344095 -0.00305423 0.000183259 -0.00305423 0.000183259 -0.0031385 3.64318e-05 -0.000375936 -0.00360968 -0.000178094 -0.00349879 -0.000178094 -0.00349879 -8.13349e-06 -0.00338917 0.00305699 0.00438055 0.0026932 0.00380212 0.016666 0.0160572 0.0163109 0.0157667 0.0111778 0.00742572 0.0112691 0.0075983 -0.00378926 -0.00138789 -0.00384308 -0.00156412 0.010569 0.00769136 0.0101222 0.0075181 0.00871782 0.0119229 0.00867788 0.0112662 0.0100385 0.00743752 0.0104783 0.0075963 0.0145342 0.0141452 0.0153105 0.0148188 -0.00324963 -0.00263641 -0.00296825 -0.00224515 -0.0044975 -0.00296825 -0.00434364 -0.00269424 -0.00296825 -0.00224515 -0.00269424 -0.00182374 0.00867788 0.0112662 0.00852031 0.0103385 0.00852031 0.0103385 0.00837442 0.00951381 -0.00207405 0.000317285 -0.00208295 0.000386888 -0.00208295 0.000386888 -0.00209265 0.000462955 0.00837763 0.00829402 0.00948216 0.00937054 0.00829402 0.00811623 0.00937054 0.00906132 0.00948216 0.00937054 0.0105853 0.0104354 0.00937054 0.00906132 0.0104354 0.00995861 -0.00081791 -0.00385283 -0.00101396 -0.00392713 -0.0011644 -0.0039762 -0.00125255 -0.00400217 -0.00125255 -0.00400217 -0.0012785 -0.00400603 0.00837442 0.00951381 0.00814454 0.00896813 0.00814454 0.00896813 0.00774063 0.0085274 0.00896813 0.0103393 0.0085274 0.00913362 0.000820753 0.00333764 0.000961622 0.003506 0.000961622 0.003506 0.00101287 0.00392888 -0.00205496 0.000205849 -0.00206461 0.000256203 -0.00206461 0.000256203 -0.00207405 0.000317285 0.00772845 0.0085155 0.00814807 0.00896846 0.0085155 0.00912858 0.00896846 0.0103398 0.00814807 0.00896846 0.00838947 0.00952365 0.00129583 -0.00081791 0.000983121 -0.00101396 0.000983121 -0.00101396 0.000782391 -0.0011644 0.00124271 0.000782391 0.00107298 0.000640339 0.000640339 -0.00125255 0.000590707 -0.0012785 0.013779 0.0163666 0.0138338 0.0164239 0.00631424 0.0103642 0.00646987 0.0105552 0.0103642 0.0139895 0.0105552 0.0141947 0.00646987 0.0105552 0.00668069 0.0107817 0.0139895 0.0165629 0.0141947 0.0167751 0.0141947 0.0167751 0.0144335 0.0170488 -0.00319117 -3.67485e-05 -0.00310656 0.000107664 -0.00310656 0.000107664 -0.00301929 0.000254219 -0.00200392 0.000415249 -0.00200413 0.000341332 -0.00200413 0.000341332 -0.00200532 0.000275891 0.00668069 0.0107817 0.00692138 0.0110993 0.00692138 0.0110993 0.00720347 0.0114069 0.0110993 0.0147515 0.0114069 0.0150491 0.0144335 0.0170488 0.0147515 0.0173295 0.0147515 0.0173295 0.0150491 0.0176003 0.0153199 0.0177846 0.0155235 0.0178655 0.0182739 0.0176213 0.0178319 0.0172446 0.0116658 0.011448 0.0126929 0.0124195 -0.00372262 -0.00096386 -0.00369944 -0.000841763 0.0178191 0.0172361 0.0182649 0.0176157 -0.00372124 -0.00133288 -0.00371898 -0.00143609 -0.00133288 0.00133918 -0.00143609 0.00132322 -0.00371898 -0.00143609 -0.00378926 -0.00138789 -0.00143609 0.00132322 -0.00138789 0.000475334 -0.00527932 -0.00536671 -0.00525136 -0.00534233 -0.00525136 -0.00534233 -0.0052436 -0.00533114 -0.00534233 -0.00430527 -0.00533114 -0.00427746 -0.0052436 -0.00533114 -0.00525431 -0.00532714 -0.00532714 -0.00423886 -0.00528012 -0.00421179 -0.000352647 -0.0023091 -0.000344227 -0.00231016 0.0172915 0.0146163 0.0175676 0.0149238 0.011883 0.0144619 0.0118702 0.014602 0.0142072 0.0155556 0.0144619 0.0160021 0.0155556 0.0159564 0.0160021 0.0164664 0.0144619 0.0160021 0.014602 0.0162856 0.0126612 0.0124381 0.0116564 0.0114775 0.014602 0.0162856 0.01465 0.0164734 0.00838947 0.00952365 0.00854914 0.0103579 0.00854914 0.0103579 0.0089057 0.0112101 -0.000887762 -0.00376533 -0.000759862 -0.00376609 -0.000759862 -0.00376609 -0.000667855 -0.00376591 -0.000667855 -0.00376591 -0.000576069 -0.00377366 -0.000576069 -0.00377366 -0.000491497 -0.00378759 0.00720347 0.0114069 0.00750117 0.0117194 0.0114069 0.0150491 0.0117194 0.0153199 0.00750117 0.0117194 0.00780861 0.0120153 0.0117194 0.0153199 0.0120153 0.0155235 0.0089057 0.0112101 0.00853605 0.0120295 0.0120295 0.0125656 0.0122316 0.0125542 -0.00623049 -0.00444044 -0.00633045 -0.00458308 -0.00633045 -0.00458308 -0.00642745 -0.00471806 0.0175665 0.0149238 0.0172908 0.0146163 -0.00651153 -0.00484937 -0.00657825 -0.00498566 0.00950888 0.00941371 0.00840776 0.00834033 0.00941371 0.00910851 0.00834033 0.00814804 -0.00326709 -0.000171076 -0.00319117 -3.67485e-05 0.00263554 0.0037937 0.00297521 0.00437458 0.00358918 -0.000491497 0.00370159 -0.000420526 0.00370159 -0.000420526 0.00379908 -0.000370827 0.0134313 0.0155132 0.0135496 0.0156452 0.00362469 0.000309267 0.00392057 0.000394105 0.00392057 0.000394105 0.00417605 0.000467427 0.0137181 0.0158162 0.0139084 0.0160046 -0.00365845 -0.000727736 -0.00363284 -0.000583808 -0.00200877 0.00057633 -0.00200484 0.000494683 -0.00200484 0.000494683 -0.00200392 0.000415249 0.0152051 0.0147926 0.0144485 0.0141337 0.00438857 0.000500124 0.00452079 0.000523054 0.014076 0.0161526 0.0138522 0.0159331 0.0136496 0.0157321 0.0134974 0.0155706 -0.00361716 -0.000320983 -0.00362613 -0.000180216 -0.00362613 -0.000180216 -0.00363685 -5.76153e-05 0.00450136 0.000516539 0.00437329 0.000495451 0.0041721 0.000464887 0.00396839 0.000385834 0.00617753 0.00396839 0.00554639 0.00361585 0.00774509 0.00379908 0.00769136 0.00382493 0.00379908 -0.000370827 0.00382493 -0.000330867 0.00769136 0.00382493 0.0075181 0.00381596 0.00382493 -0.000330867 0.00381596 -0.000313069 0.000817148 0.000810483 0.00132036 0.00131125 0.00743752 0.00376647 0.0075963 0.00375679 0.00376647 -0.00032387 0.00375679 -0.000362484 0.0075963 0.00375679 0.00763933 0.0037134 0.00375679 -0.000362484 0.0037134 -0.000422481 0.00780861 0.0120153 0.00810374 0.0122708 0.0120153 0.0155235 0.0122708 0.0156424 0.0122708 0.0156424 0.0124373 0.0156192 0.0155235 0.0178655 0.0156424 0.0178342 0.0124373 0.0156192 0.0125424 0.0154865 0.00861648 0.0125424 0.00878891 0.0125371 0.0125424 0.0154865 0.0125371 0.0152112 0.0172612 0.0178319 0.0167304 0.0171808 -0.00363685 -5.76153e-05 -0.00365347 6.18828e-05 -0.00365347 6.18828e-05 -0.00367073 0.000173391 -5.76153e-05 0.00435827 6.18828e-05 0.00454006 0.00435827 0.00878891 0.00454006 0.00889871 6.18828e-05 0.00454006 0.000173391 0.0046776 -0.00367073 0.000173391 -0.0036843 0.000268806 -0.0036843 0.000268806 -0.00369391 0.00034354 -0.00209265 0.000462955 -0.00210417 0.00054384 -0.00210417 0.00054384 -0.00211459 0.000616018 -0.00211459 0.000616018 -0.00213075 0.000699231 -0.00213075 0.000699231 -0.00215291 0.000780202 0.000173391 0.0046776 0.000268806 0.00478146 0.000268806 0.00478146 0.00034354 0.00483917 0.00878891 0.0125371 0.00889871 0.0124154 0.0125371 0.0152112 0.0124154 0.0148045 0.00889871 0.0124154 0.00890798 0.012154 -0.00388564 0.000225324 -0.0038211 0.000330287 -0.0038211 0.000330287 -0.00377378 0.000394263 0.00890798 0.012154 0.00883937 0.0117953 -0.0037635 0.000404127 -0.00381593 0.000337336 -0.00381593 0.000337336 -0.00389066 0.000233536 0.0142302 0.015254 0.0135156 0.0143272 0.0135156 0.0143272 0.0126933 0.0133175 0.0167304 0.0171808 0.016055 0.0164239 0.000336603 0.00483245 0.000265592 0.00477658 0.000265592 0.00477658 0.000173563 0.00467431 -0.00367133 0.000173563 -0.0036511 6.43038e-05 -0.0036511 6.43038e-05 -0.00363345 -5.47861e-05 0.000173563 0.00467431 6.43038e-05 0.00453718 6.43038e-05 0.00453718 -5.47861e-05 0.0043571 0.00453718 0.00889536 0.0043571 0.00878079 0.00883003 0.0117876 0.00889779 0.0121524 -0.00370523 0.000336603 -0.00369001 0.000265592 -0.00369001 0.000265592 -0.00367133 0.000173563 0.00127523 0.00455826 0.00153209 0.00404193 0.00455826 0.00774063 0.00404193 0.00627965 0.00404193 0.00627965 0.00370451 0.00478988 0.0152406 0.0155141 0.0160274 0.016403 0.0160274 0.016403 0.0167074 0.0171632 0.00889779 0.0121524 0.00889536 0.0123921 0.00889536 0.0123921 0.00878079 0.0125425 0.00774063 0.0085274 0.00627965 0.00818463 0.0085274 0.00913362 0.00818463 0.00809048 0.00627965 0.00818463 0.00478988 0.00735518 0.00818463 0.00809048 0.00735518 0.00740565 0.00673822 0.0103129 0.00683754 0.0104352 0.0103129 0.0134313 0.0104352 0.0135496 0.00683754 0.0104352 0.00697494 0.0105965 0.0104352 0.0135496 0.0105965 0.0137181 0.00367338 0.00474091 0.00401919 0.00625182 0.00152565 0.00401919 0.00128415 0.00455249 0.00401919 0.00625182 0.00455249 0.00772845 0.00474091 0.00733744 0.00625182 0.00816749 0.00733744 0.00737604 0.00816749 0.00807648 0.00625182 0.00816749 0.00772845 0.0085155 0.00816749 0.00807648 0.0085155 0.00912858 -0.00043982 -0.00364282 -0.00064417 -0.00375263 0.0165862 0.0132847 0.0166613 0.0133616 0.0166613 0.0133616 0.016884 0.0135684 0.00709089 0.0107289 0.00692549 0.0105345 0.0107289 0.0138522 0.0105345 0.0136496 0.00692549 0.0105345 0.00679707 0.0103788 0.0105345 0.0136496 0.0103788 0.0134974 0.016884 0.0135684 0.0172136 0.0139416 0.0172136 0.0139416 0.0176474 0.0143147 0.00857846 0.00426593 0.00868368 0.00439134 0.00439134 0.000372636 0.00450979 0.000407531 0.0037134 -0.000422481 0.00360144 -0.00049117 0.00360144 -0.00049117 0.00347592 -0.000578729 0.00759353 0.00347592 0.00747491 0.00331664 0.00347592 -0.000578729 0.00331664 -0.000677425 0.00747491 0.00331664 0.00730287 0.00312498 0.00331664 -0.000677425 0.00312498 -0.000779939 0.00452602 0.000415623 0.00440867 0.000380109 0.00869177 0.00440867 0.00858647 0.00428486 0.000260447 -0.00401167 0.00033251 -0.00394042 0.00033251 -0.00394042 0.000326263 -0.00391121 0.000998853 0.00411475 0.000955575 0.00356869 0.00411475 0.0089057 0.00356869 0.00853605 0.000955575 0.00356869 0.000888166 0.00306267 0.00356869 0.00853605 0.00306267 0.00794582 0.000325909 -0.0039095 0.000331913 -0.00393958 0.000331913 -0.00393958 0.000259656 -0.00401153 0.0176474 0.0143147 0.0181269 0.0147866 -0.00363345 -5.47861e-05 -0.00362288 -0.000177665 -0.00362288 -0.000177665 -0.00361458 -0.00031922 0.00189753 0.00183433 0.00150777 0.0015214 0.00120381 0.00150777 0.000896201 0.0012331 0.00150777 0.0015214 0.0012331 0.0012645 0.0156355 0.0178263 0.0155183 0.0178598 0.0155183 0.0178598 0.0153158 0.0177806 0.0072018 0.0114044 0.00692024 0.0110976 0.0114044 0.0150462 0.0110976 0.0147495 0.00692024 0.0110976 0.00667995 0.0107806 0.0150462 0.0175975 0.0147495 0.0173276 0.0147495 0.0173276 0.0144322 0.0170476 0.00667995 0.0107806 0.00646944 0.0105545 0.00646944 0.0105545 0.00631401 0.0103639 0.0105545 0.0141939 0.0103639 0.0139891 0.0144322 0.0170476 0.0141939 0.0167744 0.0141939 0.0167744 0.0139891 0.0165625 0.0138336 0.0164237 0.013779 0.0163666 0.000469867 0.000593231 0.000253622 0.000391446 0.000593231 0.000896201 0.000391446 0.000714932 0.000253622 0.000391446 0.000171799 0.000322411 0.000391446 0.000714932 0.000322411 0.000663386 0.0012331 0.0012645 0.00106938 0.00113097 0.000714932 0.00106938 0.000663386 0.00102004 0.00106938 0.00113097 0.00102004 0.00112274 0.0154175 0.0118431 0.0155647 0.0121178 0.0118431 0.00766533 0.0121178 0.0079424 0.0155647 0.0121178 0.0156039 0.012313 0.012313 0.00820564 0.0124072 0.00841802 0.0124072 0.00841802 0.0124195 0.00857846 0.0124195 0.00857846 0.0123108 0.00868368 0.0134437 0.0132616 0.0145359 0.0142742 0.0123102 0.00869177 0.0124197 0.00858647 0.0124197 0.00858647 0.0124084 0.00842615 0.0124084 0.00842615 0.012315 0.00821396 0.0156014 0.012315 0.0155638 0.0121194 0.0155638 0.0121194 0.0154169 0.0118461 0.0121194 0.00795255 0.0118461 0.00766736 0.0135754 0.00998397 0.0136232 0.0100244 0.00998397 0.00616933 0.0100244 0.00619902 0.0136232 0.0100244 0.0137634 0.0101435 0.0100244 0.00619902 0.0101435 0.00628778 0.0137634 0.0101435 0.0139818 0.0103354 0.0101435 0.00628778 0.0103354 0.0064316 0.0139818 0.0103354 0.014258 0.0105911 0.0103354 0.0064316 0.0105911 0.00662274 0.00878079 0.0125425 0.00861102 0.0125423 0.0125425 0.0152215 0.0125423 0.0154825 0.0125423 0.0154825 0.0124333 0.0156121 0.0167074 0.0171632 0.017244 0.0178191 0.0124333 0.0156121 0.012266 0.0156355 0.00810025 0.012266 0.0078057 0.0120112 0.012266 0.0156355 0.0120112 0.0155183 -0.00215291 0.000780202 -0.0021828 0.000851476 -0.0021828 0.000851476 -0.00222054 0.000904235 0.00831288 0.0118702 0.00813737 0.0117593 0.0118702 0.014602 0.0117593 0.01465 0.00813737 0.0117593 0.00793189 0.0116056 0.0117593 0.01465 0.0116056 0.0145676 -0.00222054 0.000904235 -0.00226744 0.000941944 -0.00226744 0.000941944 -0.00232416 0.000961572 0.000904235 0.004764 0.000941944 0.0048075 0.004764 0.00841234 0.0048075 0.0083136 0.000941944 0.0048075 0.000961572 0.00480105 0.0048075 0.0083136 0.00480105 0.00815698 0.0126754 0.0132936 0.0135011 0.0143134 0.0135011 0.0143134 0.0142143 0.0152406 0.0143134 0.0145359 0.0152406 0.0155141 -0.00369896 -0.000841672 -0.00372231 -0.000963813 -0.00230617 0.000963198 -0.00223626 0.000968115 -0.00223626 0.000968115 -0.00217408 0.000948511 0.0144485 0.0141337 0.0135947 0.0133428 0.0141337 0.0130025 0.0133428 0.0123921 0.0135947 0.0133428 0.0126612 0.0124381 -0.00217408 0.000948511 -0.00212208 0.000909457 -0.00212208 0.000909457 -0.00208192 0.000857713 -0.00208192 0.000857713 -0.00205171 0.000794716 -0.00205171 0.000794716 -0.00203219 0.000733344 -0.00203219 0.0007333