# vtk DataFile Version 3.0
#This file was generated by the deal.II library on 2023/3/1 at 3:10:00
ASCII
DATASET UNSTRUCTURED_GRID

FIELD FieldData 2
CYCLE 1 1 int
106
TIME 1 1 double
0.212
POINTS 11764 double
1.14805 1 2.77164
0 1 3
1.2945 0.92388 3.12519
2.0713e-16 0.92388 3.38268
-1.2945 -0.92388 -3.12519
-6.21389e-16 -0.92388 -3.38268
-1.14805 -1 -2.77164
0 -1 -3
1.0016 -0.92388 2.41809
1.60264e-16 -0.92388 2.61732
0.877452 -0.707107 2.11836
1.40399e-16 -0.707107 2.29289
-1.62132 0.707107 -1.62132
-0.877452 0.707107 -2.11836
-1.85072 0.92388 -1.85072
-1.0016 0.92388 -2.41809
1.0016 0.92388 2.41809
1.60264e-16 0.92388 2.61732
1.14805 1 2.77164
0 1 3
-1.41421 1.22465e-16 -1.41421
-0.765367 1.22465e-16 -1.84776
-1.46804 0.382683 -1.46804
-0.794497 0.382683 -1.91809
-1.46804 0.382683 -1.46804
-0.794497 0.382683 -1.91809
-1.62132 0.707107 -1.62132
-0.877452 0.707107 -2.11836
-0.794497 0.382683 -1.91809
-3.81377e-16 0.382683 -2.07612
-0.877452 0.707107 -2.11836
-4.21198e-16 0.707107 -2.29289
0 0 2
-0.765367 1.22465e-16 1.84776
1.27126e-16 0.382683 2.07612
-0.794497 0.382683 1.91809
1.27126e-16 0.382683 2.07612
-0.794497 0.382683 1.91809
1.40399e-16 0.707107 2.29289
-0.877452 0.707107 2.11836
1.60264e-16 -0.92388 2.61732
-1.0016 -0.92388 2.41809
1.40399e-16 -0.707107 2.29289
-0.877452 -0.707107 2.11836
1.27126e-16 -0.382683 2.07612
-0.794497 -0.382683 1.91809
0 0 2
-0.765367 1.22465e-16 1.84776
-1.41421 1.22465e-16 1.41421
-1.66294 1.22465e-16 1.11114
-1.4278 0.19509 1.4278
-1.67892 0.19509 1.12182
-1.66294 1.22465e-16 1.11114
-1.84776 1.22465e-16 0.765367
-1.67892 0.19509 1.12182
-1.86551 0.19509 0.77272
-1.67892 0.19509 1.12182
-1.86551 0.19509 0.77272
-1.72623 0.382683 1.15343
-1.91809 0.382683 0.794497
-1.96157 1.22465e-16 0.390181
-2 0 0
-1.98042 0.19509 0.393929
-2.01921 0.19509 2.47282e-16
-1.98042 0.19509 0.393929
-2.01921 0.19509 2.47282e-16
-2.03623 0.382683 0.405031
-2.07612 0.382683 2.54251e-16
2.44443 -0.83147 0
2.39746 -0.83147 0.476885
2.29289 -0.707107 0
2.24884 -0.707107 0.447321
-2.03623 0.382683 0.405031
-2.07612 0.382683 2.54251e-16
-2.12686 0.55557 0.423059
-2.16853 0.55557 2.65568e-16
-2.12686 0.55557 0.423059
-2.16853 0.55557 2.65568e-16
-2.24884 0.707107 0.447321
-2.29289 0.707107 2.80798e-16
-1.46804 0.382683 1.46804
-1.72623 0.382683 1.15343
-1.53338 0.55557 1.53338
-1.80307 0.55557 1.20477
-1.72623 0.382683 1.15343
-1.91809 0.382683 0.794497
-1.80307 0.55557 1.20477
-2.00346 0.55557 0.829861
-1.53338 0.55557 1.53338
-1.80307 0.55557 1.20477
-1.62132 0.707107 1.62132
-1.90647 0.707107 1.27386
-1.80307 0.55557 1.20477
-2.00346 0.55557 0.829861
-1.90647 0.707107 1.27386
-2.11836 0.707107 0.877452
2.29289 0.707107 0
2.24884 0.707107 0.447321
2.44443 0.83147 0
2.39746 0.83147 0.476885
-0.765511 -0.382683 3.84848
-1.5016 -0.382683 3.62519
-0.747483 -0.55557 3.75785
-1.46624 -0.55557 3.53982
-0.747483 -0.55557 3.75785
-1.46624 -0.55557 3.53982
-0.723221 -0.707107 3.63588
-1.41865 -0.707107 3.42492
-1.85072 -0.92388 1.85072
-2.17622 -0.92388 1.4541
-1.72847 -0.83147 1.72847
-2.03247 -0.83147 1.35805
-1.72847 -0.83147 1.72847
-2.03247 -0.83147 1.35805
-1.62132 -0.707107 1.62132
-1.90647 -0.707107 1.27386
-2.03247 -0.83147 1.35805
-2.25836 -0.83147 0.935443
-1.90647 -0.707107 1.27386
-2.11836 -0.707107 0.877452
-1.62132 -0.707107 1.62132
-1.90647 -0.707107 1.27386
-1.53338 -0.55557 1.53338
-1.80307 -0.55557 1.20477
-1.90647 -0.707107 1.27386
-2.11836 -0.707107 0.877452
-1.80307 -0.55557 1.20477
-2.00346 -0.55557 0.829861
-1.53338 -0.55557 1.53338
-1.80307 -0.55557 1.20477
-1.46804 -0.382683 1.46804
-1.72623 -0.382683 1.15343
-1.80307 -0.55557 1.20477
-2.00346 -0.55557 0.829861
-1.72623 -0.382683 1.15343
-1.91809 -0.382683 0.794497
1.2945 0.92388 3.12519
0.659929 0.92388 3.31769
1.36066 0.83147 3.28492
0.693657 0.83147 3.48725
0.659929 0.92388 3.31769
2.0713e-16 0.92388 3.38268
0.693657 0.83147 3.48725
2.17716e-16 0.83147 3.55557
1.36066 0.83147 3.28492
0.693657 0.83147 3.48725
1.41865 0.707107 3.42492
0.723221 0.707107 3.63588
0.693657 0.83147 3.48725
2.17716e-16 0.83147 3.55557
0.723221 0.707107 3.63588
2.26995e-16 0.707107 3.70711
1.66294 1.22465e-16 1.11114
1.41421 1.22465e-16 1.41421
1.67892 0.19509 1.12182
1.4278 0.19509 1.4278
1.67892 0.19509 1.12182
1.4278 0.19509 1.4278
1.72623 0.382683 1.15343
1.46804 0.382683 1.46804
1.41865 -0.707107 3.42492
0.723221 -0.707107 3.63588
1.36066 -0.83147 3.28492
0.693657 -0.83147 3.48725
1.36066 -0.83147 3.28492
0.693657 -0.83147 3.48725
1.2945 -0.92388 3.12519
0.659929 -0.92388 3.31769
0.693657 -0.83147 3.48725
2.17716e-16 -0.83147 3.55557
0.659929 -0.92388 3.31769
2.0713e-16 -0.92388 3.38268
-2.62132 -0.707107 2.62132
-3.08235 -0.707107 2.05956
-2.51417 -0.83147 2.51417
-2.95635 -0.83147 1.97537
-3.08235 -0.707107 2.05956
-3.42492 -0.707107 1.41865
-2.95635 -0.83147 1.97537
-3.28492 -0.83147 1.36066
-2.51417 -0.83147 2.51417
-2.95635 -0.83147 1.97537
-2.39192 -0.92388 2.39192
-2.8126 -0.92388 1.87932
-2.95635 -0.83147 1.97537
-3.28492 -0.83147 1.36066
-2.8126 -0.92388 1.87932
-3.12519 -0.92388 1.2945
-2.39746 -0.83147 0.476885
-2.44443 -0.83147 2.99356e-16
-2.24884 -0.707107 0.447321
-2.29289 -0.707107 2.80798e-16
-1.85072 0.92388 1.85072
-2.17622 0.92388 1.4541
-1.98337 0.980785 1.98337
-2.3322 0.980785 1.55832
-2.17622 0.92388 1.4541
-2.41809 0.92388 1.0016
-2.3322 0.980785 1.55832
-2.5914 0.980785 1.07339
-1.98337 0.980785 1.98337
-2.3322 0.980785 1.55832
-2.12132 1 2.12132
-2.49441 1 1.66671
-2.12132 -1 2.12132
-2.49441 -1 1.66671
-1.98337 -0.980785 1.98337
-2.3322 -0.980785 1.55832
-2.49441 -1 1.66671
-2.77164 -1 1.14805
-2.3322 -0.980785 1.55832
-2.5914 -0.980785 1.07339
-1.98337 -0.980785 1.98337
-2.3322 -0.980785 1.55832
-1.85072 -0.92388 1.85072
-2.17622 -0.92388 1.4541
-2.3322 -0.980785 1.55832
-2.5914 -0.980785 1.07339
-2.17622 -0.92388 1.4541
-2.41809 -0.92388 1.0016
-1.62132 0.707107 1.62132
-1.90647 0.707107 1.27386
-1.72847 0.83147 1.72847
-2.03247 0.83147 1.35805
-1.72847 0.83147 1.72847
-2.03247 0.83147 1.35805
-1.85072 0.92388 1.85072
-2.17622 0.92388 1.4541
-2.24884 0.707107 0.447321
-2.29289 0.707107 2.80798e-16
-2.39746 0.83147 0.476885
-2.44443 0.83147 2.99356e-16
-2.25836 0.83147 0.935443
-2.39746 0.83147 0.476885
-2.41809 0.92388 1.0016
-2.56703 0.92388 0.510613
2.3322 0.980785 -1.55832
2.5914 0.980785 -1.07339
2.49441 1 -1.66671
2.77164 1 -1.14805
0 -1 3
-0.585271 -1 2.94236
1.71751e-16 -0.980785 2.80491
-0.547211 -0.980785 2.75101
-0.585271 -1 2.94236
-1.14805 -1 2.77164
-0.547211 -0.980785 2.75101
-1.07339 -0.980785 2.5914
1.71751e-16 -0.980785 2.80491
-0.547211 -0.980785 2.75101
1.60264e-16 -0.92388 2.61732
-0.510613 -0.92388 2.56703
-0.547211 -0.980785 2.75101
-1.07339 -0.980785 2.5914
-0.510613 -0.92388 2.56703
-1.0016 -0.92388 2.41809
1.62132 0.707107 -1.62132
1.90647 0.707107 -1.27386
1.72847 0.83147 -1.72847
2.03247 0.83147 -1.35805
1.90647 0.707107 -1.27386
2.11836 0.707107 -0.877452
2.03247 0.83147 -1.35805
2.25836 0.83147 -0.935443
1.72847 0.83147 -1.72847
2.03247 0.83147 -1.35805
1.85072 0.92388 -1.85072
2.17622 0.92388 -1.4541
2.03247 0.83147 -1.35805
2.25836 0.83147 -0.935443
2.17622 0.92388 -1.4541
2.41809 0.92388 -1.0016
1.72623 0.382683 1.15343
1.46804 0.382683 1.46804
1.80307 0.55557 1.20477
1.53338 0.55557 1.53338
2.12132 1 -2.12132
2.49441 1 -1.66671
2.25927 0.980785 -2.25927
2.65662 0.980785 -1.7751
2.49441 1 -1.66671
2.77164 1 -1.14805
2.65662 0.980785 -1.7751
2.95188 0.980785 -1.22271
2.25927 0.980785 -2.25927
2.65662 0.980785 -1.7751
2.39192 0.92388 -2.39192
2.8126 0.92388 -1.87932
2.65662 0.980785 -1.7751
2.95188 0.980785 -1.22271
2.8126 0.92388 -1.87932
3.12519 0.92388 -1.2945
2.62132 -0.707107 -2.62132
3.08235 -0.707107 -2.05956
2.51417 -0.83147 -2.51417
2.95635 -0.83147 -1.97537
3.08235 -0.707107 -2.05956
3.42492 -0.707107 -1.41865
2.95635 -0.83147 -1.97537
3.28492 -0.83147 -1.36066
2.51417 -0.83147 -2.51417
2.95635 -0.83147 -1.97537
2.39192 -0.92388 -2.39192
2.8126 -0.92388 -1.87932
2.95635 -0.83147 -1.97537
3.28492 -0.83147 -1.36066
2.8126 -0.92388 -1.87932
3.12519 -0.92388 -1.2945
-2.24884 -0.707107 0.447321
-2.29289 -0.707107 2.80798e-16
-2.12686 -0.55557 0.423059
-2.16853 -0.55557 2.65568e-16
-2.12686 -0.55557 0.423059
-2.16853 -0.55557 2.65568e-16
-2.03623 -0.382683 0.405031
-2.07612 -0.382683 2.54251e-16
2.07612 -0.382683 0
2.03623 -0.382683 0.405031
2.01921 -0.19509 0
1.98042 -0.19509 0.393929
2.01921 -0.19509 0
1.98042 -0.19509 0.393929
2 0 0
1.96157 1.22465e-16 0.390181
1.98042 -0.19509 0.393929
1.86551 -0.19509 0.77272
1.96157 1.22465e-16 0.390181
1.84776 1.22465e-16 0.765367
2.0713e-16 -0.92388 3.38268
-0.659929 -0.92388 3.31769
1.95643e-16 -0.980785 3.19509
-0.623331 -0.980785 3.1337
-0.659929 -0.92388 3.31769
-1.2945 -0.92388 3.12519
-0.623331 -0.980785 3.1337
-1.22271 -0.980785 2.95188
1.95643e-16 -0.980785 3.19509
-0.623331 -0.980785 3.1337
0 -1 3
-0.585271 -1 2.94236
-0.623331 -0.980785 3.1337
-1.22271 -0.980785 2.95188
-0.585271 -1 2.94236
-1.14805 -1 2.77164
2.39192 -0.92388 -2.39192
2.8126 -0.92388 -1.87932
2.25927 -0.980785 -2.25927
2.65662 -0.980785 -1.7751
2.25927 -0.980785 -2.25927
2.65662 -0.980785 -1.7751
2.12132 -1 -2.12132
2.49441 -1 -1.66671
2.65662 -0.980785 -1.7751
2.95188 -0.980785 -1.22271
2.49441 -1 -1.66671
2.77164 -1 -1.14805
0.765511 -0.382683 3.84848
2.40268e-16 -0.382683 3.92388
0.747483 -0.55557 3.75785
2.3461e-16 -0.55557 3.83147
1.46624 -0.55557 3.53982
0.747483 -0.55557 3.75785
1.41865 -0.707107 3.42492
0.723221 -0.707107 3.63588
-1.53073 0 3.69552
-2.22228 0 3.32588
-1.52338 -0.19509 3.67777
-2.21161 -0.19509 3.3099
-2.22228 0 3.32588
-2.82843 0 2.82843
-2.21161 -0.19509 3.3099
-2.81484 -0.19509 2.81484
-1.52338 -0.19509 3.67777
-2.21161 -0.19509 3.3099
-1.5016 -0.382683 3.62519
-2.17999 -0.382683 3.26259
-2.21161 -0.19509 3.3099
-2.81484 -0.19509 2.81484
-2.17999 -0.382683 3.26259
-2.7746 -0.382683 2.7746
-2.17999 -0.382683 3.26259
-2.7746 -0.382683 2.7746
-2.12865 -0.55557 3.18575
-2.70926 -0.55557 2.70926
-3.26259 -0.382683 2.17999
[...]
POINT_DATA 11764
SCALARS U double 1
LOOKUP_TABLE default
0.00491479 0.00473798 0.00479852 0.00456468 0.00420608 0.00422888 0.00467283 0.00462201 0.00519459 0.00554363 0.00612309 0.00601378 0.00575734 0.0060247 0.00522885 0.0053105 0.00560754 0.00515235 0.00491479 0.00473798 0.00604275 0.00652755 0.00600827 0.0064592 0.00600827 0.0064592 0.00575734 0.0060247 0.0064592 0.006731 0.0060247 0.00637306 0.00677054 0.00586189 0.00661808 0.00576323 0.00661808 0.00576323 0.00596897 0.00535844 0.00554363 0.00476308 0.00601378 0.00537392 0.00654342 0.00574752 0.00677054 0.00586189 0.00435001 0.00483865 0.00432106 0.00480302 0.00483865 0.00555695 0.00480302 0.0056081 0.00480302 0.0056081 0.00472293 0.00562143 0.00652204 0.00740005 0.00656486 0.0073363 0.00656486 0.0073363 0.00657251 0.00693564 0.00584941 0.00642169 0.00654982 0.00682093 0.00657251 0.00693564 0.00651342 0.00650697 0.00651342 0.00650697 0.00630122 0.00618197 0.00429798 0.00472293 0.00428075 0.00461337 0.00472293 0.00562143 0.00461337 0.00555207 0.00428075 0.00461337 0.00413497 0.00446258 0.00461337 0.00555207 0.00446258 0.00549185 0.00663391 0.00665242 0.00596223 0.00654406 0.00322512 0.00382595 0.00339372 0.00415095 0.00339372 0.00415095 0.00357908 0.00438667 0.00385209 0.00380592 0.00405249 0.00418259 0.00405249 0.00418259 0.0042097 0.0044487 0.00418259 0.00501791 0.0044487 0.00530152 0.0042097 0.0044487 0.00432754 0.00463959 0.0044487 0.00530152 0.00463959 0.00547039 0.00432754 0.00463959 0.00435024 0.00475064 0.00463959 0.00547039 0.00475064 0.00554197 0.00479852 0.0046816 0.00474075 0.00433605 0.0046816 0.00456468 0.00433605 0.00442388 0.00474075 0.00433605 0.00467007 0.00419526 0.00433605 0.00442388 0.00419526 0.00429627 0.00680566 0.0061223 0.00679227 0.00627907 0.00679227 0.00627907 0.00676956 0.00634933 0.0045188 0.00373669 0.00444777 0.0038707 0.00444777 0.0038707 0.00435844 0.00400637 0.0038707 0.00388237 0.00400637 0.00418632 0.00251205 0.00262467 0.0023809 0.00251808 0.00262467 0.00253737 0.00251808 0.00285577 0.0023809 0.00251808 0.00254069 0.00267143 0.00251808 0.00285577 0.00267143 0.00314953 0.00598607 0.00567876 0.0061901 0.00641515 0.00375458 0.00385186 0.00370659 0.00360869 0.00385186 0.00478857 0.00360869 0.00419154 0.00370659 0.00360869 0.00354959 0.0034652 0.0033551 0.00324521 0.00364182 0.00348184 0.00324521 0.00353951 0.00348184 0.00394537 0.00364182 0.00348184 0.00385209 0.00380592 0.00348184 0.00394537 0.00380592 0.00450535 0.00413497 0.00446258 0.00391544 0.00421294 0.00391544 0.00421294 0.00375458 0.00385186 0.00630122 0.00618197 0.00586679 0.0057856 0.00528421 0.00586679 0.00478857 0.00533725 0.00371229 0.00420987 0.00335212 0.00387908 0.00502262 0.00461308 0.00534838 0.00483047 0.00461308 0.00440165 0.00483047 0.00452072 0.00534838 0.00483047 0.00554363 0.00515335 0.00483047 0.00452072 0.00515335 0.00476308 0.00379645 0.0044086 0.00352624 0.00406029 0.0044086 0.00541636 0.00406029 0.00497419 0.00352624 0.00406029 0.0034079 0.00389082 0.00406029 0.00497419 0.00389082 0.00456932 0.00676956 0.00634933 0.00659116 0.00632413 0.00295398 0.00335212 0.00273724 0.00306546 0.00335212 0.00387908 0.00306546 0.00364866 0.00273724 0.00306546 0.0027784 0.00304772 0.00306546 0.00364866 0.00304772 0.00345874 0.00336443 0.00334994 0.00339155 0.00343293 0.00334994 0.002562 0.00343293 0.00272246 0.00339155 0.00343293 0.00343046 0.00357731 0.00343293 0.00272246 0.00357731 0.00293419 0.0061901 0.00641515 0.00632761 0.00684237 0.00632761 0.00684237 0.00641595 0.00718199 0.00727151 0.00746119 0.00736865 0.0073849 0.00736865 0.0073849 0.00719233 0.00768957 0.0073849 0.00708024 0.00768957 0.00660146 0.00418632 0.00406592 0.00460126 0.00435486 0.00406592 0.00444145 0.00435486 0.00439016 0.00460126 0.00435486 0.00502262 0.00461308 0.00435486 0.00439016 0.00461308 0.00440165 0.00343046 0.00357731 0.00347654 0.00372059 0.00347654 0.00372059 0.00353442 0.00382454 0.00372059 0.00320359 0.00382454 0.0035601 0.00364527 0.00397179 0.00364739 0.00379558 0.00453285 0.00364739 0.0045188 0.00373669 0.0038575 0.00323545 0.00366431 0.00313899 0.00323545 0.00288695 0.00313899 0.00293048 0.00366431 0.00313899 0.00382595 0.00322651 0.00313899 0.00293048 0.00322651 0.00292128 0.00322651 0.00292128 0.00340293 0.00276714 0.00302547 0.00192967 0.00286184 0.00222584 0.00286184 0.00222584 0.00262467 0.00253737 0.00412667 0.0035871 0.00417222 0.00384902 0.00417222 0.00384902 0.00420608 0.00421748 0.00384902 0.00416953 0.00421748 0.00422888 0.00253737 0.00259436 0.00285577 0.00317154 0.00259436 0.00288906 0.00317154 0.00320935 0.00285577 0.00317154 0.00314953 0.00355241 0.00317154 0.00320935 0.00355241 0.00357814 0.00716694 0.00687514 0.00725854 0.00702278 0.00687514 0.00584118 0.00702278 0.00585494 0.00725854 0.00702278 0.00700796 0.0066828 0.00702278 0.00585494 0.0066828 0.00552371 0.00467007 0.00419526 0.00452253 0.00413908 0.00419526 0.00429627 0.00413908 0.00422966 0.00452253 0.00413908 0.00432955 0.00404739 0.00413908 0.00422966 0.00404739 0.00422548 0.00458321 0.0043127 0.00453415 0.00430836 0.0043127 0.00432955 0.00430836 0.00420111 0.00453415 0.00430836 0.00448993 0.00432101 0.00430836 0.00420111 0.00432101 0.00422931 0.00740005 0.00726093 0.0073363 0.00725195 0.0073363 0.00725195 0.00693564 0.00739079 0.00451296 0.00472116 0.00451277 0.00473924 0.00472116 0.00561947 0.00473924 0.00552842 0.00473924 0.00552842 0.00482811 0.00563519 0.00393812 0.00399418 0.00438479 0.00428976 0.00689363 0.00604275 0.00657122 0.00602551 0.00600235 0.00657122 0.00601965 0.00647669 0.00657122 0.00602551 0.00647669 0.00600827 0.00443034 0.00482811 0.00418521 0.0047692 0.00418521 0.0047692 0.00379645 0.0044086 0.00586189 0.00474107 0.00581256 0.00476562 0.00581256 0.00476562 0.00576323 0.00480703 0.00475064 0.00554197 0.00481341 0.00553964 0.00435616 0.00481341 0.00435001 0.00483865 0.00481341 0.00553964 0.00483865 0.00555695 0.00318193 0.00343755 0.00283453 0.00270388 0.00432955 0.00404739 0.00420111 0.00392279 0.00404739 0.00422548 0.00392279 0.0042704 0.00420111 0.00392279 0.00422931 0.00379085 0.00576323 0.00480703 0.00556084 0.00480548 0.00480703 0.00429798 0.00480548 0.00428075 0.00556084 0.00480548 0.00535844 0.00464425 0.00480548 0.00428075 0.00464425 0.00413497 0.00259641 0.0023286 0.00198949 0.00199787 0.00198949 0.00199787 0.00173045 0.00183203 0.00267143 0.00314953 0.00299092 0.00331452 0.00294333 0.00299092 0.0033551 0.00324521 0.00299092 0.00331452 0.00324521 0.00353951 0.00472966 0.00480555 0.00449332 0.00440933 0.00480555 0.00472827 0.00440933 0.0044461 0.00449332 0.00440933 0.00429064 0.00402976 0.00440933 0.0044461 0.00402976 0.00431896 0.00535844 0.00464425 0.0050543 0.00439052 0.00464425 0.00413497 0.00439052 0.00391544 0.0050543 0.00439052 0.00476103 0.00422545 0.00439052 0.00391544 0.00422545 0.00375458 0.00173045 0.00183203 0.00178097 0.00170443 0.00178097 0.00170443 0.00209315 0.00190585 0.00429064 0.00402976 0.00413794 0.00368542 0.0027784 0.00304772 0.00298767 0.00322553 0.00304772 0.00345874 0.00322553 0.00318193 0.00298767 0.00322553 0.00315181 0.00335183 0.00322553 0.00318193 0.00335183 0.00283453 0.00434554 0.00378746 0.00460072 0.00395914 0.00378746 0.00353442 0.00395914 0.00356649 0.00460072 0.00395914 0.0048886 0.00414675 0.00395914 0.00356649 0.00414675 0.00357085 0.00479801 0.00452573 0.00479683 0.00474612 0.00427573 0.00315057 0.00417291 0.00312498 0.00417291 0.00312498 0.00397179 0.00322512 0.00312498 0.00366431 0.00322512 0.00382595 0.00476103 0.00422545 0.00453145 0.00412974 0.00422545 0.00375458 0.00412974 0.00370659 0.00453145 0.00412974 0.00439177 0.00398316 0.00412974 0.00370659 0.00398316 0.00354959 0.00561947 0.00678225 0.00552842 0.00680064 0.00678225 0.00719233 0.00680064 0.00694178 0.00552842 0.00680064 0.00563519 0.00674054 0.00680064 0.00694178 0.00674054 0.00687688 0.00586863 0.00619744 0.00560725 0.00626626 0.00619744 0.00575734 0.00626626 0.00549309 0.00626626 0.00549309 0.00615523 0.00522885 0.00561002 0.00489397 0.00516602 0.00447236 0.00489397 0.00464419 0.00447236 0.00443587 0.00447236 0.00443587 0.00411281 0.0042774 0.00674054 0.00687688 0.00662972 0.00691444 0.00662972 0.00691444 0.00651277 0.00663391 0.00647669 0.00600827 0.00637059 0.0058828 0.00589267 0.00637059 0.00586863 0.00619744 0.00637059 0.0058828 0.00619744 0.00575734 0.0047462 0.00439557 0.00503496 0.00464105 0.00503496 0.00464105 0.00496307 0.00519459 0.00439557 0.00450769 0.00464105 0.00492806 0.00450769 0.00502262 0.00492806 0.00534838 0.00464105 0.00492806 0.00519459 0.00536911 0.00492806 0.00534838 0.00536911 0.00554363 0.00718199 0.00757561 0.00734473 0.00747685 0.00556864 0.00629976 0.00569758 0.00646501 0.00629976 0.00654982 0.00646501 0.0069175 0.00569758 0.00646501 0.00579332 0.00660322 0.00646501 0.0069175 0.00660322 0.00727151 0.00307839 0.0021904 0.00308996 0.00200312 0.00288335 0.00308996 0.00288695 0.00309797 0.00308996 0.00200312 0.00309797 0.00179701 0.00610894 0.00604354 0.00626299 0.00640149 0.00604354 0.00565519 0.00640149 0.00597564 0.00626299 0.00640149 0.00635168 0.00648189 0.00640149 0.00597564 0.00648189 0.00608879 0.00652517 0.00635426 0.00705634 0.00682738 0.00635426 0.00548194 0.00682738 0.00563617 0.00705634 0.00682738 0.0073021 0.00677354 0.00682738 0.00563617 0.00677354 0.00551731 0.00428976 0.00507414 0.00457795 0.00539109 0.00457795 0.00539109 0.00495299 0.00578678 0.00270388 0.00301782 0.00206241 0.0026892 0.00388383 0.00348491 0.00394726 0.00344999 0.00344999 0.00399896 0.0034164 0.00400724 0.00396538 0.0032784 0.00399896 0.00317326 0.00317326 0.00377758 0.00311781 0.00347583 0.00400724 0.00311781 0.00402659 0.00312314 0.00312314 0.0032075 0.00317221 0.00310008 0.00408653 0.00317221 0.00416953 0.00328026 0.00317221 0.00310008 0.00328026 0.003265 0.00416953 0.00328026 0.00422888 0.00350664 0.00328026 0.003265 0.00350664 0.00364803 0.00422888 0.00350664 0.00442544 0.00379692 0.00350664 0.00364803 0.00379692 0.00405033 0.00442544 0.00379692 0.00462201 0.00410481 0.00379692 0.00405033 0.00410481 0.00434554 0.00411281 0.0042774 0.00382235 0.00407225 0.0044461 0.00382235 0.00431896 0.00361033 0.00431896 0.00361033 0.00423487 0.0034933 0.00423487 0.0034933 0.00413384 0.00346896 0.0034933 0.00381654 0.00346896 0.00403378 0.00585403 0.00518978 0.0052635 0.00499319 0.00414675 0.00357085 0.00435655 0.00364126 0.00435655 0.00364126 0.0045882 0.00379168 0.00354959 0.0034652 0.00318448 0.00322763 0.0034652 0.00384663 0.00322763 0.00365648 0.00318448 0.00322763 0.0027798 0.00290345 0.00322763 0.00365648 0.00290345 0.00343089 0.00574752 0.00484231 0.0058047 0.00478927 0.0058047 0.00478927 0.00586189 0.00474107 0.00579332 0.00660322 0.00579128 0.00671053 0.00660322 0.00727151 0.00671053 0.00736865 0.00579128 0.00671053 0.00561947 0.00678225 0.00671053 0.00736865 0.00678225 0.00719233 0.00440165 0.00375804 0.00452072 0.00393882 0.00375804 0.0033551 0.00393882 0.00364182 0.00452072 0.00393882 0.00476308 0.0041759 0.00393882 0.00364182 0.0041759 0.00385209 0.00456468 0.00398191 0.00442388 0.00389997 0.00398191 0.00443261 0.00389997 0.0045215 0.00442388 0.00389997 0.00429627 0.00379889 0.00389997 0.0045215 0.00379889 0.0045608 0.00452065 0.00499467 0.00366422 0.00467838 0.00499467 0.00472985 0.00467838 0.00487611 0.00366422 0.00467838 0.00288935 0.00418113 0.00467838 0.00487611 0.00418113 0.00462809 0.00596897 0.0056637 0.0055617 0.00506939 0.0056637 0.00535844 0.00506939 0.0050543 0.0055617 0.00506939 0.00515235 0.0046779 0.00506939 0.0050543 0.0046779 0.00476103 0.00209315 0.00190585 0.002338 0.00235459 0.002338 0.00235459 0.00220427 0.00253953 0.00515235 0.0046779 0.00494517 0.00439564 0.0046779 0.00476103 0.00439564 0.00453145 0.00494517 0.00439564 0.00473798 0.00420826 0.00439564 0.00453145 0.00420826 0.00439177 0.00635168 0.00648189 0.00616914 0.00658457 0.00648189 0.00608879 0.00658457 0.00623045 0.00658457 0.00623045 0.00689363 0.00604275 0.00551057 0.00553134 0.00603203 0.00604686 0.00553134 0.00481396 0.00604686 0.0051048 0.00603203 0.00604686 0.00633417 0.00605461 0.00604686 0.0051048 0.00605461 0.00507277 0.00357908 0.00438667 0.00379326 0.00446597 0.00388237 0.00379326 0.00418632 0.00406592 0.00379326 0.00446597 0.00406592 0.00444145 0.00473798 0.00420826 0.00465133 0.00407163 0.00465133 0.00407163 0.00456468 0.00398191 0.00407163 0.00436788 0.00398191 0.00443261 0.0047229 0.00468118 0.00528816 0.00522614 0.0027798 0.00290345 0.00259367 0.00272579 0.00290345 0.00343089 0.00272579 0.0030742 0.00259367 0.00272579 0.00265653 0.00279936 0.00272579 0.0030742 0.00279936 0.00266659 0.00476308 0.0041759 0.0050685 0.00445171 0.0041759 0.00385209 0.00445171 0.00405249 0.0050685 0.00445171 0.00537392 0.00469987 0.00445171 0.00405249 0.00469987 0.0042097 0.00641595 0.00718199 0.00646902 0.00734473 0.00646902 0.00734473 0.00652204 0.00740005 0.00484991 0.0052635 0.00433086 0.00474911 0.00483622 0.00538769 0.00528446 0.00570769 0.00528446 0.00570769 0.00531591 0.00611349 0.00601378 0.00569385 0.00628104 0.00584386 0.00569385 0.00537392 0.00584386 0.00559504 0.00628104 0.00584386 0.00654342 0.00614547 0.00584386 0.00559504 0.00614547 0.00574752 0.00537392 0.00469987 0.00559504 0.00484795 0.00469987 0.0042097 0.00484795 0.00432754 0.00559504 0.00484795 0.00574752 0.00484231 0.00484795 0.00432754 0.00484231 0.00435024 0.00442137 0.00479852 0.00438604 0.00474075 0.00487611 0.00438604 0.00462809 0.00436689 0.00438604 0.00474075 0.00436689 0.00467007 0.00481396 0.00436449 0.0051048 0.00452821 0.00436449 0.00467283 0.00452821 0.00504789 0.0051048 0.00452821 0.00507277 0.00483622 0.00452821 0.00504789 0.00483622 0.00538769 0.00439016 0.00364927 0.00440165 0.00375804 0.00364927 0.00294333 0.00375804 0.0033551 0.00467283 0.00464742 0.00504789 0.00498936 0.00464742 0.00462201 0.00498936 0.00499793 0.00504789 0.00498936 0.00538769 0.0053677 0.00498936 0.00499793 0.0053677 0.00537002 0.00651277 0.00663391 0.00628815 0.00596223 0.00348187 0.00413384 0.00339272 0.00400621 0.00339272 0.00400621 0.00342514 0.00394371 0.00422931 0.00379085 0.00436158 0.003689 0.00538769 0.0053677 0.00570769 0.00574465 0.0053677 0.00537002 0.00574465 0.00571747 0.00570769 0.00574465 0.00611349 0.00607991 0.00574465 0.00571747 0.00607991 0.00605173 0.00528816 0.00522614 0.00525084 0.00538671 0.00377985 0.00433894 0.00292478 0.00402149 0.00433894 0.0041617 0.00402149 0.00421704 0.00292478 0.00402149 0.0022221 0.00347228 0.00402149 0.00421704 0.00347228 0.00392441 0.00531247 0.00479061 0.00493074 0.00456901 0.00479061 0.00491479 0.00456901 0.00485665 0.00493074 0.00456901 0.00472985 0.00442137 0.00456901 0.00485665 0.00442137 0.00479852 0.0060247 0.00619888 0.0056676 0.00607133 0.00619888 0.00637306 0.00607133 0.00598999 0.0056676 0.00607133 0.0053105 0.00567619 0.00607133 0.00598999 0.00567619 0.00561002 0.00353442 0.00382454 0.00356649 0.00390182 0.00356649 0.00390182 0.00357085 0.00398067 0.00357085 0.00398067 0.00364126 0.00410748 0.00364126 0.00410748 0.00379168 0.00421658 0.00410748 0.00527646 0.00421658 0.00556864 0.00527646 0.00606454 0.00556864 0.00629976 0.00606454 0.00584941 0.00629976 0.00654982 0.0053105 0.00567619 0.00512298 0.00520908 0.00567619 0.00561002 0.00520908 0.00516602 0.00512298 0.00520908 0.00472966 0.00480555 0.00384065 0.00342514 0.00384385 0.00347417 0.00384385 0.00347417 0.00388383 0.00348491 0.00542338 0.00612309 0.00577875 0.00630333 0.00577875 0.00630333 0.005838 0.00650541 0.00422487 0.00385231 0.00452573 0.00396465 0.00385231 0.00412667 0.00396465 0.00417222 0.00452573 0.00396465 0.00474612 0.00410839 0.00396465 0.00417222 0.00410839 0.00420608 0.00474612 0.00410839 0.00468466 0.00425088 0.00410839 0.00420608 0.00425088 0.00443945 0.00468466 0.00425088 0.00481396 0.00436449 0.00425088 0.00443945 0.00436449 0.00467283 0.00548194 0.00496307 0.00563617 0.00512087 0.00496307 0.00519459 0.00512087 0.00565884 0.00563617 0.00512087 0.00551731 0.00542338 0.00512087 0.00565884 0.00542338 0.00612309 0.00478641 0.0048886 0.00514017 0.00519982 0.00546593 0.0045882 0.00560719 0.00475039 0.0045882 0.00379168 0.00475039 0.0040405 0.00560719 0.00475039 0.00569275 0.00483232 0.00475039 0.0040405 0.00483232 0.00425721 0.00439177 0.00398316 0.00436788 0.0038333 0.00398316 0.00354959 0.0038333 0.00318448 0.00605173 0.00545046 0.00627735 0.00571941 0.00627735 0.00571941 0.00647314 0.00591665 0.00571941 0.00560719 0.00591665 0.00569275 0.00647314 0.00591665 0.00660001 0.0060766 0.00591665 0.00569275 0.0060766 0.00577526 0.00660001 0.0060766 0.00668536 0.00618903 0.0060766 0.00577526 0.00618903 0.00584156 0.00347583 0.00318566 0.0032075 0.00307537 0.00318566 0.00335832 0.00307537 0.00335267 0.0032075 0.00307537 0.00310008 0.00304358 0.00307537 0.00335267 0.00304358 0.00336443 0.00429627 0.00379889 0.00422966 0.00369523 0.00499319 0.00446328 0.00444281 0.00416861 0.00446328 0.00472966 0.00416861 0.00449332 0.00444281 0.00416861 0.0041617 0.00383706 0.00416861 0.00449332 0.00383706 0.00429064 0.00351971 0.00447209 0.00332454 0.00425365 0.0042704 0.00332454 0.00427573 0.00315057 0.00332454 0.00425365 0.00315057 0.0038575 0.00392441 0.00357041 0.00374213 0.00360614 0.00357041 0.0039799 0.00360614 0.0038852 0.00374213 0.00360614 0.00368466 0.00361265 0.00360614 0.0038852 0.00361265 0.00384065 0.0041617 0.00383706 0.00421704 0.00363352 0.00383706 0.00429064 0.00363352 0.00413794 0.00421704 0.00363352 0.00392441 0.00357041 0.00363352 0.00413794 0.00357041 0.0039799 0.00522885 0.00526968 0.00518978 0.00470781 0.00526968 0.0053105 0.00470781 0.00512298 0.00518978 0.00470781 0.00499319 0.00446328 0.00470781 0.00512298 0.00446328 0.00472966 0.0066774 0.00670813 0.00668096 0.00668176 0.00670813 0.00677054 0.00668176 0.00669431 0.00668096 0.00668176 0.00664329 0.00660693 0.00668176 0.00669431 0.00660693 0.00661808 0.00386079 0.00331835 0.00381654 0.00328264 0.00381654 0.00328264 0.00403378 0.00339988 0.00328264 0.00298767 0.00339988 0.00315181 0.00346896 0.00403378 0.00349527 0.00433276 0.00349527 0.00433276 0.00349704 0.00443775 0.00542217 0.00439335 0.0049959 0.00410995 0.0049959 0.00410995 0.00464419 0.00395425 0.0061223 0.00583437 0.00627907 0.00583476 0.00583437 0.0066774 0.00583476 0.00668096 0.00627907 0.00583476 0.00634933 0.00586926 0.00583476 0.00668096 0.00586926 0.00664329 0.00354836 0.00232911 0.00356613 0.00227881 0.00407118 0.00344669 0.00377758 0.00331217 0.00344669 0.00337018 0.00331217 0.00336978 0.00377758 0.00331217 0.00347583 0.00318566 0.00331217 0.00336978 0.00318566 0.00335832 0.00361065 0.00329732 0.00357167 0.00334532 0.00357167 0.00334532 0.00344669 0.00337018 0.00464419 0.00395425 0.00443587 0.00383961 0.00395425 0.0034079 0.00383961 0.00325857 0.00443587 0.00383961 0.0042774 0.00368457 0.00349704 0.00443775 0.00341866 0.00435827 0.00341866 0.00435827 0.0032784 0.00407118 0.00586926 0.00664329 0.00605561 0.00644809 0.00605561 0.00644809 0.00569293 0.00632087 0.00569275 0.00483232 0.00577526 0.00488469 0.00577526 0.00488469 0.00584156 0.00491257 0.00488469 0.00445034 0.00491257 0.00451296 0.00379168 0.00421658 0.0040405 0.0043795 0.00421658 0.00556864 0.0043795 0.00569758 0.0040405 0.0043795 0.00425721 0.00458556 0.0043795 0.00569758 0.00458556 0.00579332 0.00357815 0.00289332 0.00343291 0.00288335 0.00425365 0.00343291 0.0038575 0.00323545 0.00343291 0.00288335 0.00323545 0.00288695 0.00664329 0.00660693 0.00644809 0.00640692 0.00660693 0.00661808 0.00640692 0.00629353 0.00644809 0.00640692 0.00632087 0.00613282 0.00640692 0.00629353 0.00613282 0.00596897 0.005838 0.00650541 0.00594545 0.00657975 0.00594545 0.00657975 0.00583437 0.0066774 0.00288695 0.00309797 0.00293048 0.00307203 0.00364803 0.00334672 0.00405033 0.00358604 0.00334672 0.00343046 0.00358604 0.00347654 0.00358604 0.00347654 0.00378746 0.00353442 0.00584118 0.00569293 0.00585494 0.00537926 0.00569293 0.00632087 0.00537926 0.00600069 0.00585494 0.00537926 0.00552371 0.00518857 0.00537926 0.00600069 0.00518857 0.00560754 0.00279936 0.00266659 0.0029919 0.00236921 0.0029919 0.00236921 0.00307839 0.0021904 0.00448993 0.00432101 0.00446037 0.00432971 0.00432101 0.00422931 0.00432971 0.00436158 0.00446037 0.00432971