# vtk DataFile Version 3.0
#This file was generated by the deal.II library on 2023/3/1 at 3:09:46
ASCII
DATASET UNSTRUCTURED_GRID

FIELD FieldData 2
CYCLE 1 1 int
73
TIME 1 1 double
0.146
POINTS 11212 double
2.29289 0.707107 0
2.11836 0.707107 0.877452
2.61732 0.92388 0
2.41809 0.92388 1.0016
2.11836 0.707107 0.877452
1.62132 0.707107 1.62132
2.41809 0.92388 1.0016
1.85072 0.92388 1.85072
2.41809 -0.92388 1.0016
1.85072 -0.92388 1.85072
2.11836 -0.707107 0.877452
1.62132 -0.707107 1.62132
1.84776 1.22465e-16 0.765367
1.41421 1.22465e-16 1.41421
1.91809 0.382683 0.794497
1.46804 0.382683 1.46804
2.07612 0.382683 0
1.91809 0.382683 0.794497
2.29289 0.707107 0
2.11836 0.707107 0.877452
1.91809 0.382683 0.794497
1.46804 0.382683 1.46804
2.11836 0.707107 0.877452
1.62132 0.707107 1.62132
2.29289 -0.707107 0
2.11836 -0.707107 0.877452
2.07612 -0.382683 0
1.91809 -0.382683 0.794497
2.07612 -0.382683 0
1.91809 -0.382683 0.794497
2 0 0
1.84776 1.22465e-16 0.765367
-2 0 0
-1.84776 1.22465e-16 -0.765367
-2.07612 0.382683 2.54251e-16
-1.91809 0.382683 -0.794497
-1.84776 1.22465e-16 -0.765367
-1.41421 1.22465e-16 -1.41421
-1.91809 0.382683 -0.794497
-1.46804 0.382683 -1.46804
-2.29289 -0.707107 2.80798e-16
-2.11836 -0.707107 -0.877452
-2.07612 -0.382683 2.54251e-16
-1.91809 -0.382683 -0.794497
-2.11836 -0.707107 -0.877452
-1.62132 -0.707107 -1.62132
-1.91809 -0.382683 -0.794497
-1.46804 -0.382683 -1.46804
-1.91809 -0.382683 -0.794497
-1.46804 -0.382683 -1.46804
-1.84776 1.22465e-16 -0.765367
-1.41421 1.22465e-16 -1.41421
-2.29289 0.707107 2.80798e-16
-2.11836 0.707107 -0.877452
-2.61732 0.92388 3.20529e-16
-2.41809 0.92388 -1.0016
-2.11836 0.707107 -0.877452
-1.62132 0.707107 -1.62132
-2.41809 0.92388 -1.0016
-1.85072 0.92388 -1.85072
-2.61732 0.92388 3.20529e-16
-2.41809 0.92388 -1.0016
-3 1 0
-2.77164 1 -1.14805
-2.77164 -1 -1.14805
-2.12132 -1 -2.12132
-2.41809 -0.92388 -1.0016
-1.85072 -0.92388 -1.85072
-2.61732 -0.92388 3.20529e-16
-2.41809 -0.92388 -1.0016
-2.29289 -0.707107 2.80798e-16
-2.11836 -0.707107 -0.877452
-2.41809 -0.92388 -1.0016
-1.85072 -0.92388 -1.85072
-2.11836 -0.707107 -0.877452
-1.62132 -0.707107 -1.62132
-1.91809 -0.382683 0.794497
-2.07612 -0.382683 2.54251e-16
-1.84776 1.22465e-16 0.765367
-2 0 0
-3.12519 -0.92388 -1.2945
-2.39192 -0.92388 -2.39192
-2.77164 -1 -1.14805
-2.12132 -1 -2.12132
-1.85072 -0.92388 -1.85072
-1.0016 -0.92388 -2.41809
-1.62132 -0.707107 -1.62132
-0.877452 -0.707107 -2.11836
3.12519 -0.92388 -1.2945
3.38268 -0.92388 0
2.77164 -1 -1.14805
3 -1 0
-2.77164 1 -1.14805
-2.12132 1 -2.12132
-3.12519 0.92388 -1.2945
-2.39192 0.92388 -2.39192
2.39192 0.92388 2.39192
1.2945 0.92388 3.12519
2.62132 0.707107 2.62132
1.41865 0.707107 3.42492
2.12132 -1 2.12132
1.14805 -1 2.77164
1.85072 -0.92388 1.85072
1.0016 -0.92388 2.41809
1.85072 -0.92388 1.85072
1.0016 -0.92388 2.41809
1.62132 -0.707107 1.62132
0.877452 -0.707107 2.11836
3.12519 -0.92388 1.2945
2.39192 -0.92388 2.39192
2.77164 -1 1.14805
2.12132 -1 2.12132
-2.12132 1 -2.12132
-1.14805 1 -2.77164
-2.39192 0.92388 -2.39192
-1.2945 0.92388 -3.12519
-1.85072 0.92388 -1.85072
-1.0016 0.92388 -2.41809
-2.12132 1 -2.12132
-1.14805 1 -2.77164
1.41421 1.22465e-16 1.41421
0.765367 1.22465e-16 1.84776
1.46804 0.382683 1.46804
0.794497 0.382683 1.91809
1.62132 -0.707107 1.62132
0.877452 -0.707107 2.11836
1.46804 -0.382683 1.46804
0.794497 -0.382683 1.91809
1.46804 -0.382683 1.46804
0.794497 -0.382683 1.91809
1.41421 1.22465e-16 1.41421
0.765367 1.22465e-16 1.84776
2.39192 -0.92388 2.39192
1.2945 -0.92388 3.12519
2.12132 -1 2.12132
1.14805 -1 2.77164
-1.46804 0.382683 -1.46804
-0.794497 0.382683 -1.91809
-1.62132 0.707107 -1.62132
-0.877452 0.707107 -2.11836
-2.62132 0.707107 -2.62132
-1.41865 0.707107 -3.42492
-2.7746 0.382683 -2.7746
-1.5016 0.382683 -3.62519
-1.41421 1.22465e-16 1.41421
-1.66294 1.22465e-16 1.11114
-1.4278 0.19509 1.4278
-1.67892 0.19509 1.12182
-1.66294 1.22465e-16 1.11114
-1.84776 1.22465e-16 0.765367
-1.67892 0.19509 1.12182
-1.86551 0.19509 0.77272
-1.4278 0.19509 1.4278
-1.67892 0.19509 1.12182
-1.46804 0.382683 1.46804
-1.72623 0.382683 1.15343
-1.67892 0.19509 1.12182
-1.86551 0.19509 0.77272
-1.72623 0.382683 1.15343
-1.91809 0.382683 0.794497
-1.84776 1.22465e-16 0.765367
-1.96157 1.22465e-16 0.390181
-1.86551 0.19509 0.77272
-1.98042 0.19509 0.393929
-1.96157 1.22465e-16 0.390181
-2 0 0
-1.98042 0.19509 0.393929
-2.01921 0.19509 2.47282e-16
-1.86551 0.19509 0.77272
-1.98042 0.19509 0.393929
-1.91809 0.382683 0.794497
-2.03623 0.382683 0.405031
-1.98042 0.19509 0.393929
-2.01921 0.19509 2.47282e-16
-2.03623 0.382683 0.405031
-2.07612 0.382683 2.54251e-16
3 -1 0
2.94236 -1 0.585271
2.80491 -0.980785 0
2.75101 -0.980785 0.547211
2.94236 -1 0.585271
2.77164 -1 1.14805
2.75101 -0.980785 0.547211
2.5914 -0.980785 1.07339
2.80491 -0.980785 0
2.75101 -0.980785 0.547211
2.61732 -0.92388 0
2.56703 -0.92388 0.510613
2.75101 -0.980785 0.547211
2.5914 -0.980785 1.07339
2.56703 -0.92388 0.510613
2.41809 -0.92388 1.0016
2.61732 -0.92388 0
2.56703 -0.92388 0.510613
2.44443 -0.83147 0
2.39746 -0.83147 0.476885
2.56703 -0.92388 0.510613
2.41809 -0.92388 1.0016
2.39746 -0.83147 0.476885
2.25836 -0.83147 0.935443
2.44443 -0.83147 0
2.39746 -0.83147 0.476885
2.29289 -0.707107 0
2.24884 -0.707107 0.447321
2.39746 -0.83147 0.476885
2.25836 -0.83147 0.935443
2.24884 -0.707107 0.447321
2.11836 -0.707107 0.877452
-1.91809 0.382683 0.794497
-2.03623 0.382683 0.405031
-2.00346 0.55557 0.829861
-2.12686 0.55557 0.423059
-2.03623 0.382683 0.405031
-2.07612 0.382683 2.54251e-16
-2.12686 0.55557 0.423059
-2.16853 0.55557 2.65568e-16
-2.00346 0.55557 0.829861
-2.12686 0.55557 0.423059
-2.11836 0.707107 0.877452
-2.24884 0.707107 0.447321
-2.12686 0.55557 0.423059
-2.16853 0.55557 2.65568e-16
-2.24884 0.707107 0.447321
-2.29289 0.707107 2.80798e-16
1.0016 -0.92388 2.41809
0.510613 -0.92388 2.56703
0.935443 -0.83147 2.25836
0.476885 -0.83147 2.39746
0.510613 -0.92388 2.56703
1.60264e-16 -0.92388 2.61732
0.476885 -0.83147 2.39746
1.49678e-16 -0.83147 2.44443
0.935443 -0.83147 2.25836
0.476885 -0.83147 2.39746
0.877452 -0.707107 2.11836
0.447321 -0.707107 2.24884
0.476885 -0.83147 2.39746
1.49678e-16 -0.83147 2.44443
0.447321 -0.707107 2.24884
1.40399e-16 -0.707107 2.29289
-2.12132 -1 -2.12132
-1.66671 -1 -2.49441
-1.98337 -0.980785 -1.98337
-1.55832 -0.980785 -2.3322
-1.66671 -1 -2.49441
-1.14805 -1 -2.77164
-1.55832 -0.980785 -2.3322
-1.07339 -0.980785 -2.5914
-1.98337 -0.980785 -1.98337
-1.55832 -0.980785 -2.3322
-1.85072 -0.92388 -1.85072
-1.4541 -0.92388 -2.17622
-1.55832 -0.980785 -2.3322
-1.07339 -0.980785 -2.5914
-1.4541 -0.92388 -2.17622
-1.0016 -0.92388 -2.41809
1.2945 0.92388 3.12519
0.659929 0.92388 3.31769
1.36066 0.83147 3.28492
0.693657 0.83147 3.48725
1.36066 0.83147 3.28492
0.693657 0.83147 3.48725
1.41865 0.707107 3.42492
0.723221 0.707107 3.63588
-2.41809 0.92388 1.0016
-2.56703 0.92388 0.510613
-2.5914 0.980785 1.07339
-2.75101 0.980785 0.547211
-2.56703 0.92388 0.510613
-2.61732 0.92388 3.20529e-16
-2.75101 0.980785 0.547211
-2.80491 0.980785 3.43502e-16
-2.5914 0.980785 1.07339
-2.75101 0.980785 0.547211
-2.77164 1 1.14805
-2.94236 1 0.585271
-2.75101 0.980785 0.547211
-2.80491 0.980785 3.43502e-16
-2.94236 1 0.585271
-3 1 0
-1.62132 0.707107 -1.62132
-1.27386 0.707107 -1.90647
-1.72847 0.83147 -1.72847
-1.35805 0.83147 -2.03247
-1.27386 0.707107 -1.90647
-0.877452 0.707107 -2.11836
-1.35805 0.83147 -2.03247
-0.935443 0.83147 -2.25836
-1.72847 0.83147 -1.72847
-1.35805 0.83147 -2.03247
-1.85072 0.92388 -1.85072
-1.4541 0.92388 -2.17622
-1.35805 0.83147 -2.03247
-0.935443 0.83147 -2.25836
-1.4541 0.92388 -2.17622
-1.0016 0.92388 -2.41809
1.36066 -0.83147 3.28492
0.693657 -0.83147 3.48725
1.2945 -0.92388 3.12519
0.659929 -0.92388 3.31769
-2.39192 -0.92388 -2.39192
-1.87932 -0.92388 -2.8126
-2.25927 -0.980785 -2.25927
-1.7751 -0.980785 -2.65662
-1.87932 -0.92388 -2.8126
-1.2945 -0.92388 -3.12519
-1.7751 -0.980785 -2.65662
-1.22271 -0.980785 -2.95188
-2.25927 -0.980785 -2.25927
-1.7751 -0.980785 -2.65662
-2.12132 -1 -2.12132
-1.66671 -1 -2.49441
-1.7751 -0.980785 -2.65662
-1.22271 -0.980785 -2.95188
-1.66671 -1 -2.49441
-1.14805 -1 -2.77164
-2.56703 -0.92388 0.510613
-2.61732 -0.92388 3.20529e-16
-2.39746 -0.83147 0.476885
-2.44443 -0.83147 2.99356e-16
-2.39746 -0.83147 0.476885
-2.44443 -0.83147 2.99356e-16
-2.24884 -0.707107 0.447321
-2.29289 -0.707107 2.80798e-16
-1.85072 0.92388 1.85072
-2.17622 0.92388 1.4541
-1.98337 0.980785 1.98337
-2.3322 0.980785 1.55832
-2.17622 0.92388 1.4541
-2.41809 0.92388 1.0016
-2.3322 0.980785 1.55832
-2.5914 0.980785 1.07339
-1.98337 0.980785 1.98337
-2.3322 0.980785 1.55832
-2.12132 1 2.12132
-2.49441 1 1.66671
-2.3322 0.980785 1.55832
-2.5914 0.980785 1.07339
-2.49441 1 1.66671
-2.77164 1 1.14805
-2.12132 -1 2.12132
-2.49441 -1 1.66671
-1.98337 -0.980785 1.98337
-2.3322 -0.980785 1.55832
-2.49441 -1 1.66671
-2.77164 -1 1.14805
-2.3322 -0.980785 1.55832
-2.5914 -0.980785 1.07339
-1.98337 -0.980785 1.98337
-2.3322 -0.980785 1.55832
-1.85072 -0.92388 1.85072
-2.17622 -0.92388 1.4541
-2.3322 -0.980785 1.55832
-2.5914 -0.980785 1.07339
-2.17622 -0.92388 1.4541
-2.41809 -0.92388 1.0016
2.77164 -1 1.14805
2.49441 -1 1.66671
2.5914 -0.980785 1.07339
2.3322 -0.980785 1.55832
2.49441 -1 1.66671
2.12132 -1 2.12132
2.3322 -0.980785 1.55832
1.98337 -0.980785 1.98337
2.5914 -0.980785 1.07339
2.3322 -0.980785 1.55832
2.41809 -0.92388 1.0016
2.17622 -0.92388 1.4541
2.3322 -0.980785 1.55832
1.98337 -0.980785 1.98337
2.17622 -0.92388 1.4541
1.85072 -0.92388 1.85072
-2.24884 0.707107 0.447321
-2.29289 0.707107 2.80798e-16
-2.39746 0.83147 0.476885
-2.44443 0.83147 2.99356e-16
-2.39746 0.83147 0.476885
-2.44443 0.83147 2.99356e-16
-2.56703 0.92388 0.510613
-2.61732 0.92388 3.20529e-16
2.61732 0.92388 0
2.56703 0.92388 0.510613
2.80491 0.980785 0
2.75101 0.980785 0.547211
2.56703 0.92388 0.510613
2.41809 0.92388 1.0016
2.75101 0.980785 0.547211
2.5914 0.980785 1.07339
2.80491 0.980785 0
2.75101 0.980785 0.547211
[...]
POINT_DATA 11212
SCALARS U double 1
LOOKUP_TABLE default
0.00370445 0.00436261 0.0030517 0.00415531 0.00436261 0.00495685 0.00415531 0.00443593 0.00435048 0.00365503 0.00452179 0.00385069 0.004399 0.00443642 0.00445293 0.00494262 0.00409269 0.00445293 0.00370445 0.00436261 0.00445293 0.00494262 0.00436261 0.00495685 0.00371817 0.00452179 0.00406704 0.00437819 0.00406704 0.00437819 0.00419614 0.004399 0.00420581 0.00442812 0.00401376 0.00429887 0.00442812 0.00481918 0.00429887 0.00449147 0.00338275 0.00420284 0.00389855 0.00437588 0.00420284 0.00417972 0.00437588 0.00448261 0.00437588 0.00448261 0.00442812 0.00481918 0.0036132 0.00411557 0.00270331 0.00385281 0.00411557 0.00441704 0.00385281 0.00419899 0.00270331 0.00385281 0.00180074 0.00320338 0.00279721 0.00368915 0.00367001 0.00404071 0.00252754 0.00367001 0.00338275 0.00420284 0.00367001 0.00404071 0.00420284 0.00417972 0.00330851 0.00389855 0.00298151 0.00420581 0.00211325 0.00341431 0.00279721 0.00368915 0.00404071 0.00367125 0.00417972 0.00462021 0.00181237 0.00170763 0.00214481 0.00237659 0.00320338 0.0034561 0.00202828 0.00308932 0.00348509 0.00346332 0.00344988 0.00365682 0.00336915 0.00358896 0.00365503 0.0040602 0.00365503 0.0040602 0.00385069 0.00475398 0.00264001 0.00328109 0.00372517 0.00336915 0.0034561 0.00324817 0.00308932 0.00298068 0.00419899 0.00386137 0.0034561 0.00324817 0.00443642 0.00517398 0.00494262 0.00518866 0.00385069 0.00475398 0.00400663 0.00502139 0.00400663 0.00502139 0.00443642 0.00517398 0.00328109 0.00352138 0.00336915 0.00358896 0.00449147 0.00511912 0.00441704 0.00467001 0.0027664 0.0028022 0.00295872 0.00234067 0.0024623 0.00292961 0.00264988 0.00271468 0.00292961 0.00298151 0.00271468 0.00393025 0.00264988 0.00271468 0.00284617 0.00311397 0.00271468 0.00393025 0.00311397 0.00444211 0.00298151 0.00359366 0.00393025 0.00424105 0.00359366 0.00420581 0.00424105 0.00410979 0.00393025 0.00424105 0.00444211 0.00387765 0.00424105 0.00410979 0.00387765 0.00401376 0.00237659 0.0031997 0.0025625 0.00352883 0.0031997 0.00372517 0.00352883 0.00408413 0.0025625 0.00352883 0.00294461 0.00377197 0.00352883 0.00408413 0.00377197 0.00435048 0.00294461 0.00377197 0.00325579 0.00403895 0.00377197 0.00435048 0.00403895 0.00443613 0.00325579 0.00403895 0.00371817 0.00411998 0.00403895 0.00443613 0.00411998 0.00452179 0.00444211 0.00387765 0.00510204 0.00357975 0.00387765 0.00401376 0.00357975 0.00382154 0.00510204 0.00357975 0.00454701 0.0033728 0.00357975 0.00382154 0.0033728 0.0036132 0.0040602 0.00439064 0.00440709 0.00471624 0.00439064 0.00436794 0.00471624 0.0049038 0.00440709 0.00471624 0.00475398 0.00494683 0.00471624 0.0049038 0.00494683 0.00516972 0.00368915 0.00336699 0.00386493 0.00361184 0.00336699 0.00293414 0.00361184 0.00324416 0.00386493 0.00361184 0.00404071 0.00385598 0.00361184 0.00324416 0.00385598 0.00367125 0.00346332 0.00354317 0.00356007 0.0033222 0.00356007 0.0033222 0.00365682 0.00307763 0.00357093 0.0032555 0.00332041 0.00321364 0.0032555 0.00270331 0.00321364 0.00225203 0.00332041 0.00321364 0.00322629 0.00295659 0.00321364 0.00225203 0.00295659 0.00180074 0.00441704 0.00454352 0.00430802 0.00436745 0.00454352 0.00467001 0.00436745 0.00428806 0.00430802 0.00436745 0.00419899 0.00403018 0.00436745 0.00428806 0.00403018 0.00386137 0.00352729 0.00285647 0.00352138 0.00317053 0.00341431 0.00312486 0.00355173 0.00318742 0.00312486 0.00273336 0.00318742 0.00277206 0.00355173 0.00318742 0.00368915 0.00336699 0.00318742 0.00277206 0.00336699 0.00293414 0.00317584 0.00252754 0.00326774 0.00295514 0.00326774 0.00295514 0.00324435 0.00338275 0.00217515 0.00266807 0.0018388 0.00213588 0.00266807 0.00357093 0.00213588 0.00332041 0.0018388 0.00213588 0.00152266 0.00197001 0.00213588 0.00332041 0.00197001 0.00322629 0.00123061 0.00164834 0.00161369 0.00190425 0.00164834 0.00280652 0.00190425 0.00298864 0.00161369 0.00190425 0.00211818 0.00257899 0.00190425 0.00298864 0.00257899 0.0034082 0.00372517 0.00354716 0.00408413 0.00382779 0.00354716 0.00336915 0.00382779 0.00351209 0.00408413 0.00382779 0.00435048 0.00400275 0.00382779 0.00351209 0.00400275 0.00365503 0.0033728 0.0036132 0.00340252 0.00315826 0.00340252 0.00315826 0.0032555 0.00270331 0.0030517 0.0036035 0.00280279 0.00364816 0.0036035 0.00415531 0.00364816 0.00388597 0.00280279 0.00364816 0.00246449 0.00346365 0.00364816 0.00388597 0.00346365 0.00356448 0.00331506 0.00361514 0.00375089 0.00383059 0.00280652 0.00319075 0.00298864 0.00342129 0.00298864 0.00342129 0.0034082 0.00317584 0.00415531 0.00429562 0.00388597 0.00401743 0.00429562 0.00443593 0.00401743 0.00406995 0.00388597 0.00401743 0.00356448 0.00372028 0.00401743 0.00406995 0.00372028 0.00375718 0.00419614 0.00429757 0.00407215 0.00457191 0.00429757 0.004399 0.00457191 0.00442596 0.00407215 0.00457191 0.00409269 0.00427281 0.00457191 0.00442596 0.00427281 0.00445293 0.00443593 0.00414547 0.00406995 0.00369666 0.00414547 0.00397258 0.00369666 0.00361473 0.00369666 0.00361473 0.00340106 0.00338985 0.00452179 0.00418624 0.00444999 0.00414527 0.00418624 0.00385069 0.00414527 0.00392866 0.00444999 0.00414527 0.00437819 0.00414711 0.00414527 0.00392866 0.00414711 0.00400663 0.00437819 0.00414711 0.00438859 0.00423335 0.00414711 0.00400663 0.00423335 0.00422152 0.00438859 0.00423335 0.004399 0.00441771 0.00423335 0.00422152 0.00441771 0.00443642 0.00346365 0.00356448 0.00316162 0.00315022 0.00316162 0.00315022 0.00288841 0.00264973 0.00401376 0.00415632 0.00382154 0.0041348 0.00415632 0.00429887 0.0041348 0.00416511 0.00382154 0.0041348 0.0036132 0.00386438 0.0041348 0.00416511 0.00386438 0.00411557 0.00453152 0.00324435 0.00529366 0.00352747 0.00324435 0.00338275 0.00352747 0.00364065 0.00529366 0.00352747 0.00330851 0.00360353 0.00352747 0.00364065 0.00360353 0.00389855 0.00187015 0.00288841 0.0015456 0.00260663 0.00288841 0.00264973 0.00260663 0.0021182 0.00260663 0.0021182 0.00220562 0.00166735 0.00224788 0.00249299 0.00236217 0.0020836 0.00249299 0.000838188 0.0020836 0.00259205 0.0020836 0.00259205 0.00227396 0.00181237 0.00366392 0.00386182 0.00359837 0.00380353 0.00386182 0.00336217 0.00380353 0.00340613 0.00359837 0.00380353 0.00347894 0.00374333 0.00380353 0.00340613 0.00374333 0.00345094 0.00227396 0.00181237 0.00223662 0.00197859 0.00223662 0.00197859 0.00231602 0.00214481 0.00342957 0.00256354 0.00358534 0.00267688 0.00246081 0.00206778 0.00267809 0.00189584 0.00267809 0.00189584 0.00269031 0.00190911 0.00390352 0.00419614 0.00391986 0.00407215 0.00391986 0.00407215 0.00365823 0.00409269 0.00303029 0.00286064 0.00286516 0.00291237 0.00145036 0.00132503 0.00216833 0.00146778 0.00273336 0.00303657 0.00277206 0.00324583 0.00277206 0.00324583 0.00293414 0.00342208 0.00354039 0.00385838 0.00363665 0.00388921 0.00385838 0.0034808 0.00388921 0.00338747 0.00363665 0.00388921 0.00366392 0.00386182 0.00388921 0.00338747 0.00386182 0.00336217 0.000448657 0.00128229 0.000539905 0.00119561 0.00128229 0.000400711 0.00119561 0.000428578 0.00356448 0.00372028 0.00315022 0.00341696 0.00372028 0.00375718 0.00341696 0.00358254 0.00315022 0.00341696 0.00264973 0.00315451 0.00341696 0.00358254 0.00315451 0.00348509 0.00231689 0.00216833 0.00265504 0.00283587 0.00216833 0.00146778 0.00283587 0.00156592 0.00265504 0.00283587 0.00280652 0.00319075 0.00494262 0.00506564 0.00494974 0.00513384 0.00506564 0.00518866 0.00513384 0.00503782 0.00494974 0.00513384 0.00495685 0.00494382 0.00513384 0.00503782 0.00494382 0.00478027 0.0030783 0.00353814 0.00306359 0.0033022 0.00286499 0.00347073 0.00264966 0.00294233 0.00347073 0.00330851 0.00294233 0.00314501 0.00264966 0.00294233 0.0024623 0.00292961 0.00294233 0.00314501 0.00292961 0.00298151 0.00358896 0.00381084 0.00382458 0.00406299 0.00382458 0.00406299 0.0040602 0.00439064 0.00338747 0.00258009 0.00336217 0.00254088 0.00214481 0.0022607 0.00334886 0.00320084 0.0022607 0.00237659 0.00320084 0.0025625 0.00320084 0.0025625 0.00325731 0.00294461 0.00385281 0.0040259 0.0035281 0.00376758 0.0040259 0.00419899 0.00376758 0.00382755 0.0035281 0.00376758 0.00320338 0.00332974 0.00376758 0.00382755 0.00332974 0.0034561 0.00129219 0.000899458 0.000952131 0.000871742 0.000952131 0.000871742 0.00119259 0.000622666 0.00166735 0.00273835 0.00132214 0.00263971 0.00273835 0.00344988 0.00263971 0.00344589 0.00132214 0.00263971 0.00115519 0.00260572 0.00263971 0.00344589 0.00260572 0.00354039 0.00153388 0.00181103 0.00131519 0.0015546 0.00181103 0.00231689 0.0015546 0.00265504 0.00131519 0.0015546 0.00123061 0.00164834 0.0015546 0.00265504 0.00164834 0.00280652 0.00115519 0.00260572 0.00103073 0.00263194 0.00260572 0.00354039 0.00263194 0.00363665 0.00103073 0.00263194 0.000913272 0.00267141 0.00263194 0.00363665 0.00267141 0.00366392 0.00324817 0.00357324 0.00311442 0.00322375 0.00311442 0.00322375 0.00298068 0.00279886 0.00106061 0.00119259 0.000382019 0.00147985 0.00119259 0.000622666 0.00147985 0.000435241 0.000382019 0.00147985 0.000878003 0.00114767 0.00147985 0.000435241 0.00114767 0.000448657 0.0016481 0.00122991 0.0019923 0.00169341 0.0019923 0.00169341 0.00230551 0.00211325 0.00230551 0.00211325 0.00255983 0.00245523 0.00255983 0.00245523 0.00277728 0.00279721 0.000838188 0.00178806 0.00259205 0.00207921 0.00178806 0.000871974 0.00207921 0.001202 0.00259205 0.00207921 0.00181237 0.00176 0.00207921 0.001202 0.00176 0.00170763 0.00182253 0.0020959 0.00177406 0.00168916 0.0020959 0.00257471 0.00168916 0.00245247 0.00177406 0.00168916 0.00178142 0.00222532 0.00168916 0.00245247 0.00222532 0.0010619 0.00257471 0.00223395 0.00245247 0.00222933 0.00223395 0.00187015 0.00222933 0.0015456 0.00245247 0.00222933 0.0010619 0.00191125 0.00222933 0.0015456 0.00191125 0.00127028 0.000603262 0.00114066 0.00049566 0.00114278 0.00114066 0.000913272 0.00114278 0.000827968 0.00049566 0.00114278 0.000563174 0.00126972 0.0014779 0.00106553 0.00184087 0.00143874 0.00386137 0.00408766 0.00355477 0.00382062 0.00355477 0.00382062 0.00324817 0.00357324 0.00122991 0.00220443 0.00169341 0.00247589 0.00220443 0.00301544 0.00247589 0.00323522 0.00169341 0.00247589 0.00211325 0.00276378 0.00247589 0.00323522 0.00276378 0.00341431 0.00495685 0.00494382 0.00469639 0.00460679 0.00494382 0.00478027 0.00460679 0.00439389 0.00469639 0.00460679 0.00443593 0.00414547 0.00460679 0.00439389 0.00414547 0.00397258 0.00367125 0.00402013 0.00414573 0.00439194 0.00414573 0.00439194 0.00462021 0.00470497 0.00481918 0.0051432 0.00465532 0.00504085 0.0051432 0.00526696 0.00504085 0.0052202 0.00465532 0.00504085 0.00449147 0.00480529 0.00504085 0.0052202 0.00480529 0.00511912 0.00448261 0.0048321 0.0046509 0.00506726 0.0048321 0.0051041 0.00506726 0.00522151 0.0046509 0.00506726 0.00481918 0.0051432 0.00506726 0.00522151 0.0051432 0.00526696 0.00220562 0.00166735 0.00194552 0.00132214 0.00113057 0.00194552 0.00102063 0.00159095 0.00180074 0.00250206 0.00132944 0.00229004 0.00250206 0.00320338 0.00229004 0.00261583 0.00229004 0.00261583 0.00192752 0.00202828 0.00102063 0.00159095 0.000858297 0.00127709 0.000858297 0.00127709 0.000603262 0.00114066 0.00411044 0.00365597 0.0039017 0.00325378 0.00478899 0.00365823 0.00503152 0.00359592 0.00365823 0.00409269 0.00359592 0.00389857 0.00503152 0.00359592 0.00453824 0.00344204 0.00359592 0.00389857 0.00344204 0.00370445 0.00264973 0.00315451 0.0021182 0.00292884 0.00315451 0.00348509 0.00292884 0.00346748 0.00292884 0.00346748 0.00273835 0.00344988 0.00421302 0.00325127 0.00478407 0.00343794 0.00325127 0.00371817 0.00343794 0.0038926 0.00478407 0.00343794 0.00420096 0.00376979 0.00343794 0.0038926 0.00376979 0.00406704 0.00251334 0.00274972 0.00270155 0.00267087 0.00274972 0.00420096 0.00267087 0.00356251 0.00270155 0.00267087 0.00309003 0.00324902 0.00267087 0.00356251 0.00324902 0.00418244 0.00420096 0.00376979 0.00356251 0.00409057 0.00376979 0.00406704 0.00409057 0.00413159 0.00356251 0.00409057 0.00418244 0.00390352 0.00409057 0.00413159 0.00390352 0.00419614 0.0012402 0.00192752 0.00100297 0.00174842 0.00192752 0.00202828 0.00174842 0.00147069 0.00174842 0.00147069 0.00165012 0.00102976 0.00389855 0.00413722 0.00405218 0.00449323 0.00413722 0.00437588 0.00449323 0.004402 0.00405218 0.00449323 0.00420581 0.00431696 0.00449323 0.004402 0.00431696 0.00442812 0.00352138 0.00317053 0.00355517 0.00351629 0.00355517 0.00351629 0.00358896 0.00381084 0.00351629 0.00358534 0.00381084 0.00361495 0.00165012 0.00102976 0.00159662 0.000738639 0.0014891 0.000542128 0.00142869 0.000430598 0.000435241 0.00142869 0.000448657 0.00128229 0.00142869 0.000430598 0.00128229 0.000400711 0.00154516 0.00179064 0.00141798 0.00160883 0.00179064 0.00106061 0.00160883 0.000382019 0.00141798 0.00160883 0.0015563 0.00171618 0.00160883 0.000382019 0.00171618 0.000878003 0.00340106 0.00338985 0.00336039 0.00335695 0.00358254 0.00336039 0.00348509 0.00347421 0.00336039 0.00335695 0.00347421 0.00346332 0.00335695 0.00375276 0.00346332 0.00354317 0.00205312 0.00277728 0.00232169 0.00296816 0.00277728 0.00279721 0.00296816 0.00323361 0.00232169 0.00296816 0.00252754 0.00309877 0.00296816 0.00323361 0.00309877 0.00367001 0.0010619 0.00191125 0.000635561 0.0017882 0.00191125 0.00127028 0.0017882 0.00113057 0.000635561 0.0017882 0.00103598 0.00126688 0.0017882 0.00113057 0.00126688 0.00102063 0.000913272 0.00267141 0.000827968 0.00267935 0.00267141 0.00366392 0.00267935 0.00359837 0.000827968 0.00267935 0.000859471 0.00265794 0.00267935 0.00359837 0.00265794 0.00347894 0.00151616 0.00286696 0.00158397 0.0026543 0.000428578 0.00158397 0.000557256 0.00175169 0.00158397 0.0026543 0.00175169 0.00262697 0.000859471 0.00265794 0.00106553 0.00264585 0.00265794 0.00347894 0.00264585 0.00337435 0.00106553 0.00264585 0.00143874 0.00271175 0.00264585 0.00337435 0.00271175 0.00331985 0.000577483 0.001229 0.00073039 0.00136757 0.001229 0.000557256 0.00136757 0.00083936 0.00073039 0.00136757 0.000983661 0.0016481 0.00301544 0.00302964 0.00323522 0.0030985 0.00302964 0.00303029 0.0030985 0.00286516 0.00323522 0.0030985 0.00341431 0.00312486 0.0030985 0.00286516 0.00312486 0.00273336 0.00295912 0.00243128 0.00307134 0.00269391 0.00307134 0.00269391 0.00303029 0.00286064 0.0034066 0.00223922 0.00335933 0.00235028 0.00282202 0.00304742 0.00315713 0.00330896 0.00531642 0.00475078 0.00529874 0.004715 0.00529874 0.004715 0.00525051 0.00463772 0.00258295 0.00246449 0.00220992 0.00221934 0.00152266 0.00197001 0.00166595 0.00193712 0.00197001 0.00322629 0.00193712 0.00303215 0.00166595 0.00193712 0.00200556 0.0019536 0.00193712 0.00303215 0.0019536 0.00246249 0.00429887 0.00439517 0.00416511 0.00423837 0.00439517 0.00449147 0.00423837 0.00445425 0.00416511 0.00423837 0.00411557 0.0042663 0.00423837 0.00445425 0.0042663 0.00441704 0.00361514 0.00285419 0.00383059 0.00281079 0.00525051 0.00463772 0.00511793 0.00450773 0.00511793 0.00450773 0.00485217 0.00429173 0.00449139 0.00394225 0.00417072 0.00352758 0.00202828 0.0025588 0.00147069 0.00230341 0.0025588 0.00308932 0.00230341 0.00288629 0.00230341 0.00288629 0.00200979 0.0027664 0.00175169 0.00262697 0.00197312 0.00278187 0.00197312 0.00278187 0.00220443 0.00301544 0.00436794 0.00375089 0.0049038 0.00411518 0.00375089 0.00383059 0.00411518 0.00420249 0.0049038 0.00411518 0.00516972 0.00437239 0.00389618 0.0028754 0.00393664 0.00272498 0.00271175 0.00331985 0.00285134 0.00328216 0.0019865 0.00285134 0.00264001 0.00296055 0.00285134 0.00328216 0.00296055 0.00328109 0.00467001 0.0046767 0.00428806 0.00438001 0.00428806 0.00438001 0.00386137 0.00408766 0.00516972 0.00437239 0.00522349 0.00453642 0.00522349 0.00453642 0.00526926 0.00465843 0.00478027 0.00473728 0.00439389 0.00449694 0.00439389 0.00449694 0.00397258 0.00427 0.00397258 0.00427 0.00361473 0.0040965 0.00361473 0.0040965 0.00338985 0.00393998 0.00526926 0.00465843 0.00530841 0.00473401 0.00530841 0.00473401 0.00531642 0.00475078 0.00344204 0.00370445 0.00342863 0.00337807 0.00446328 0.00342863 0.00386335 0.00342881 0.00342863 0.00337807 0.00342881 0.0030517 0.0028022 0.00235045 0.00257144 0.00235632 0.00257144 0.00235632 0.00234067 0.0022813 0.00347894 0.00374333 0.00337435 0.00366579 0.00374333 0.00345094 0.00366579 0.003504 0.00337435 0.00366579 0.00331985 0.00356141 0.00366579 0.003504 0.00356141 0.00353882 0.00308932 0.003035 0.00288629 0.00294143 0.003035 0.00298068 0.00294143 0.00290881 0.00288629 0.00294143 0.0027664 0.0027843 0.00294143 0.00290881 0.0027843 0.0028022 0.00389282 0.00315713 0.00426959 0.00355435 0.00315713 0.00330896 0.00355435 0.00350478 0.00426959 0.00355435 0.00449256 0.00391233 0.00355435 0.00350478 0.00391233 0.00377383 0.00344988 0.00355335 0.00344589 0.00375239 0.00355335 0.00365682 0.00375239 0.00358304 0.00344589 0.00375239 0.00354039 0.00385838 0.00375239 0.00358304 0.00385838 0.0034808 0.00325731 0.00294461 0.00343236 0.00325579 0.00343236 0.00325579 0.00325127 0.00371817 0.00102976 0.00200979 0.000738639 0.00174702 0.00200979 0.0027664 0.00174702 0.00286256 0.000738639 0.00174702 0.000542128 0.0015745 0.00174702 0.00286256 0.0015745 0.00295872 0.0022813 0.00382344 0.00221514 0.00368871 0.00524399 0.0046161 0.00512478 0.00447702 0.00512478 0.00447702 0.00483763 0.00428855 0.00483763 0.00428855 0.00444048 0.003992 0.00428855 0.00453938 0.003992 0.00412491 0.00449256 0.00391233 0.00463022 0.00413407 0.00391233 0.00377383 0.00413407 0.00416288 0.00486408 0.00432822 0.00509824 0.00447634 0.00509824 0.00447634 0.00521841 0.00456945 0.00521841 0.00456945 0.00526538 0.00464442 0.00526538 0.00464442 0.00528987 0.00470549 0.00295872 0.0026497 0.00298781 0.00270276 0.0026497 0.00234067 0.00270276 0.00222937 0.00298781 0.00270276 0.00286696 0.00275244 0.00270276 0.00222937 0.00275244 0.00238393 0.00517398 0.00515765 0.00518132 0.00514064 0.00518132 0.00514064 0.00518866 0.00506532 0.00528987 0.00470549 0.00528622 0.00470047 0.00528622 0.00470047 0.00524399 0.0046161 0.00518866 0.00506532 0.00503782 0.00494078 0.00503782 0.00494078 0.00478027 0.00473728 0.00238803 0.00270888 0.00236074 0.00263737 0.00268158 0.00233102 0.00267415 0.00226695 0.00267415 0.00226695 0.0025361 0.00227738 0.0026859 0.00238803 0.00268966 0.00236074 0.00268966 0.00236074 0.00268158 0.00233102 0.00368871 0.00231739 0.00350051 0.00227308 0.00475398 0.00494683 0.00488769 0.00504953 0.00488769 0.00504953 0.00502139 0.00509405 0.000871974 0.00184087 0.001202 0.00219465 0.001202 0.00219465 0.00170763 0.00250505 0.00219465 0.0019865 0.00250505 0.00264001 0.00502139 0.00509405 0.00509769 0.00514198 0.00509769 0.00514198 0.00517398 0.00515765 0.00170763 0.00250505 0.00204211 0.00287977 0.00250505 0.00264001 0.00287977 0.00318259 0.00204211 0.00287977 0.00237659 0.0031997 0.00287977 0.00318259 0.0031997 0.00372517 0.00331985 0.00356141 0.00328216 0.00346334 0.00356141 0.00353882 0.00346334 0.00352729 0.00328216 0.00346334 0.00328109 0.00340123 0.00346334 0.00352729 0.00340123 0.00352138 0.00189584 0.00224016 0.00190911 0.00229629 0.00113407 0.00073039 0.00131052 0.000983661 0.00417972 0.00439996 0.00433116 0.00459133 0.00439996 0.00462021 0.00459133 0.00491749 0.00433116 0.00459133 0.00448261 0.0048321 0.00459133 0.00491749 0.0048321 0.0051041 0.00126688 0.00102063 0.000744221 0.000858297 0.000744221 0.000858297 0.000727542 0.000603262 0.00322629 0.00295659 0.00303215 0.00283876 0.00295659 0.00180074 0.00283876 0.00132944 0.00303215 0.00283876 0.00246249 0.0024851 0.0019536 0.00246249 0.00226502 0.00191341 0.000719838 0.000563174 0.00135711 0.000594957 0.00107454 0.00135711 0.000838188 0.00178806 0.00135711 0.000594957 0.00178806 0.000871974 0.00526696 0.00515937 0.0052202 0.00514166 0.0052202 0.00514166 0.00511912 0.00506306 0.000727542 0.000603262 0.000701785 0.00049566 0.000701785 0.00049566 0.000719838 0.000563174 0.00511912 0.00506306 0.00489456 0.00492374 0.00489456 0.00492374 0.00467001 0.0046767 0.00462021 0.00470497 0.00491749 0.00493662 0.00491749 0.00493662 0.0051041 0.00507068 0.0051041 0.00507068 0.00522151 0.0051382 0.00522151 0.0051382 0.00526696 0.00515937 0.00275244 0.00238393 0.002808 0.00270919 0.002808 0.00270919 0.00287715 0.00295912 0.00262697 0.