# vtk DataFile Version 3.0
#This file was generated by the deal.II library on 2023/2/27 at 0:39:04
ASCII
DATASET UNSTRUCTURED_GRID

FIELD FieldData 2
CYCLE 1 1 int
2
TIME 1 1 double
0.004
POINTS 2020 double
2 0 0
1.41421 1.22465e-16 1.41421
2.29289 0.707107 0
1.62132 0.707107 1.62132
2.29289 -0.707107 0
1.62132 -0.707107 1.62132
2 0 0
1.41421 1.22465e-16 1.41421
-1.41421 1.22465e-16 1.41421
-2 0 0
-1.62132 0.707107 1.62132
-2.29289 0.707107 2.80798e-16
-1.62132 0.707107 1.62132
-2.29289 0.707107 2.80798e-16
-2.12132 1 2.12132
-3 1 0
-2.12132 -1 2.12132
-3 -1 0
-1.62132 -0.707107 1.62132
-2.29289 -0.707107 2.80798e-16
-1.62132 -0.707107 1.62132
-2.29289 -0.707107 2.80798e-16
-1.41421 1.22465e-16 1.41421
-2 0 0
-2.82843 0 2.82843
-4 0 0
-2.62132 -0.707107 2.62132
-3.70711 -0.707107 4.5399e-16
-2.62132 -0.707107 2.62132
-3.70711 -0.707107 4.5399e-16
-2.12132 -1 2.12132
-3 -1 0
-2.12132 1 2.12132
-3 1 0
-2.62132 0.707107 2.62132
-3.70711 0.707107 4.5399e-16
-2.62132 0.707107 2.62132
-3.70711 0.707107 4.5399e-16
-2.82843 0 2.82843
-4 0 0
-2 0 0
-1.41421 1.22465e-16 -1.41421
-2.29289 0.707107 2.80798e-16
-1.62132 0.707107 -1.62132
-1.41421 1.22465e-16 -1.41421
0 0 -2
-1.62132 0.707107 -1.62132
-4.21198e-16 0.707107 -2.29289
-2.29289 0.707107 2.80798e-16
-1.62132 0.707107 -1.62132
-3 1 0
-2.12132 1 -2.12132
-1.62132 0.707107 -1.62132
-4.21198e-16 0.707107 -2.29289
-2.12132 1 -2.12132
0 1 -3
-3 -1 0
-2.12132 -1 -2.12132
-2.29289 -0.707107 2.80798e-16
-1.62132 -0.707107 -1.62132
-2.12132 -1 -2.12132
0 -1 -3
-1.62132 -0.707107 -1.62132
-4.21198e-16 -0.707107 -2.29289
-2.29289 -0.707107 2.80798e-16
-1.62132 -0.707107 -1.62132
-2 0 0
-1.41421 1.22465e-16 -1.41421
-1.62132 -0.707107 -1.62132
-4.21198e-16 -0.707107 -2.29289
-1.41421 1.22465e-16 -1.41421
0 0 -2
-4 0 0
-2.82843 0 -2.82843
-3.70711 -0.707107 4.5399e-16
-2.62132 -0.707107 -2.62132
-2.82843 0 -2.82843
0 0 -4
-2.62132 -0.707107 -2.62132
-6.80984e-16 -0.707107 -3.70711
-3.70711 -0.707107 4.5399e-16
-2.62132 -0.707107 -2.62132
-3 -1 0
-2.12132 -1 -2.12132
-2.62132 -0.707107 -2.62132
-6.80984e-16 -0.707107 -3.70711
-2.12132 -1 -2.12132
0 -1 -3
-3 1 0
-2.12132 1 -2.12132
-3.70711 0.707107 4.5399e-16
-2.62132 0.707107 -2.62132
-2.12132 1 -2.12132
0 1 -3
-2.62132 0.707107 -2.62132
-6.80984e-16 0.707107 -3.70711
-3.70711 0.707107 4.5399e-16
-2.62132 0.707107 -2.62132
-4 0 0
-2.82843 0 -2.82843
-2.62132 0.707107 -2.62132
-6.80984e-16 0.707107 -3.70711
-2.82843 0 -2.82843
0 0 -4
0 0 -2
1.41421 1.22465e-16 -1.41421
-4.21198e-16 0.707107 -2.29289
1.62132 0.707107 -1.62132
1.41421 1.22465e-16 -1.41421
2 0 0
1.62132 0.707107 -1.62132
2.29289 0.707107 0
-4.21198e-16 0.707107 -2.29289
1.62132 0.707107 -1.62132
0 1 -3
2.12132 1 -2.12132
1.62132 0.707107 -1.62132
2.29289 0.707107 0
2.12132 1 -2.12132
3 1 0
0 -1 -3
2.12132 -1 -2.12132
-4.21198e-16 -0.707107 -2.29289
1.62132 -0.707107 -1.62132
2.12132 -1 -2.12132
3 -1 0
1.62132 -0.707107 -1.62132
2.29289 -0.707107 0
-4.21198e-16 -0.707107 -2.29289
1.62132 -0.707107 -1.62132
0 0 -2
1.41421 1.22465e-16 -1.41421
1.62132 -0.707107 -1.62132
2.29289 -0.707107 0
1.41421 1.22465e-16 -1.41421
2 0 0
0 0 -4
2.82843 0 -2.82843
-6.80984e-16 -0.707107 -3.70711
2.62132 -0.707107 -2.62132
2.82843 0 -2.82843
4 0 0
2.62132 -0.707107 -2.62132
3.70711 -0.707107 0
-6.80984e-16 -0.707107 -3.70711
2.62132 -0.707107 -2.62132
0 -1 -3
2.12132 -1 -2.12132
2.62132 -0.707107 -2.62132
3.70711 -0.707107 0
2.12132 -1 -2.12132
3 -1 0
0 1 -3
2.12132 1 -2.12132
-6.80984e-16 0.707107 -3.70711
2.62132 0.707107 -2.62132
2.12132 1 -2.12132
3 1 0
2.62132 0.707107 -2.62132
3.70711 0.707107 0
-6.80984e-16 0.707107 -3.70711
2.62132 0.707107 -2.62132
0 0 -4
2.82843 0 -2.82843
2.62132 0.707107 -2.62132
3.70711 0.707107 0
2.82843 0 -2.82843
4 0 0
2.82843 0 2.82843
1.53073 0 3.69552
2.7746 -0.382683 2.7746
1.5016 -0.382683 3.62519
-1.53073 0 3.69552
-2.82843 0 2.82843
-1.5016 -0.382683 3.62519
-2.7746 -0.382683 2.7746
-1.5016 -0.382683 3.62519
-2.7746 -0.382683 2.7746
-1.41865 -0.707107 3.42492
-2.62132 -0.707107 2.62132
-1.41865 -0.707107 3.42492
-2.62132 -0.707107 2.62132
-1.2945 -0.92388 3.12519
-2.39192 -0.92388 2.39192
-1.2945 -0.92388 3.12519
-2.39192 -0.92388 2.39192
-1.14805 -1 2.77164
-2.12132 -1 2.12132
-1.14805 1 2.77164
-2.12132 1 2.12132
-1.2945 0.92388 3.12519
-2.39192 0.92388 2.39192
-1.2945 0.92388 3.12519
-2.39192 0.92388 2.39192
-1.41865 0.707107 3.42492
-2.62132 0.707107 2.62132
1.85072 -0.92388 1.85072
1.0016 -0.92388 2.41809
1.62132 -0.707107 1.62132
0.877452 -0.707107 2.11836
3.70711 -0.707107 0
3.42492 -0.707107 1.41865
3.38268 -0.92388 0
3.12519 -0.92388 1.2945
3.42492 -0.707107 1.41865
2.62132 -0.707107 2.62132
3.12519 -0.92388 1.2945
2.39192 -0.92388 2.39192
3.38268 -0.92388 0
3.12519 -0.92388 1.2945
3 -1 0
2.77164 -1 1.14805
3.12519 -0.92388 1.2945
2.39192 -0.92388 2.39192
2.77164 -1 1.14805
2.12132 -1 2.12132
-0.877452 0.707107 2.11836
-1.62132 0.707107 1.62132
-1.0016 0.92388 2.41809
-1.85072 0.92388 1.85072
-1.0016 0.92388 2.41809
-1.85072 0.92388 1.85072
-1.14805 1 2.77164
-2.12132 1 2.12132
-1.14805 -1 2.77164
-2.12132 -1 2.12132
-1.0016 -0.92388 2.41809
-1.85072 -0.92388 1.85072
-1.0016 -0.92388 2.41809
-1.85072 -0.92388 1.85072
-0.877452 -0.707107 2.11836
-1.62132 -0.707107 1.62132
3 1 0
2.77164 1 1.14805
3.38268 0.92388 0
3.12519 0.92388 1.2945
2.77164 1 1.14805
2.12132 1 2.12132
3.12519 0.92388 1.2945
2.39192 0.92388 2.39192
3.38268 0.92388 0
3.12519 0.92388 1.2945
3.70711 0.707107 0
3.42492 0.707107 1.41865
3.12519 0.92388 1.2945
2.39192 0.92388 2.39192
3.42492 0.707107 1.41865
2.62132 0.707107 2.62132
3.70711 0.707107 0
3.42492 0.707107 1.41865
3.92388 0.382683 0
3.62519 0.382683 1.5016
3.42492 0.707107 1.41865
2.62132 0.707107 2.62132
3.62519 0.382683 1.5016
2.7746 0.382683 2.7746
3.92388 0.382683 0
3.62519 0.382683 1.5016
4 0 0
3.69552 0 1.53073
3.62519 0.382683 1.5016
2.7746 0.382683 2.7746
3.69552 0 1.53073
2.82843 0 2.82843
-0.765367 1.22465e-16 1.84776
-1.41421 1.22465e-16 1.41421
-0.794497 0.382683 1.91809
-1.46804 0.382683 1.46804
1.27126e-16 0.382683 2.07612
-0.794497 0.382683 1.91809
1.40399e-16 0.707107 2.29289
-0.877452 0.707107 2.11836
-0.794497 0.382683 1.91809
-1.46804 0.382683 1.46804
-0.877452 0.707107 2.11836
-1.62132 0.707107 1.62132
1.41421 1.22465e-16 1.41421
0.765367 1.22465e-16 1.84776
1.46804 0.382683 1.46804
0.794497 0.382683 1.91809
1.46804 0.382683 1.46804
0.794497 0.382683 1.91809
1.62132 0.707107 1.62132
0.877452 0.707107 2.11836
-1.41865 0.707107 3.42492
-2.62132 0.707107 2.62132
-1.5016 0.382683 3.62519
-2.7746 0.382683 2.7746
-1.5016 0.382683 3.62519
-2.7746 0.382683 2.7746
-1.53073 0 3.69552
-2.82843 0 2.82843
4 0 0
3.69552 0 1.53073
3.92388 -0.382683 0
3.62519 -0.382683 1.5016
3.69552 0 1.53073
2.82843 0 2.82843
3.62519 -0.382683 1.5016
2.7746 -0.382683 2.7746
3.92388 -0.382683 0
3.62519 -0.382683 1.5016
3.70711 -0.707107 0
3.42492 -0.707107 1.41865
3.62519 -0.382683 1.5016
2.7746 -0.382683 2.7746
3.42492 -0.707107 1.41865
2.62132 -0.707107 2.62132
2.29289 0.707107 0
2.11836 0.707107 0.877452
2.61732 0.92388 0
2.41809 0.92388 1.0016
2.11836 0.707107 0.877452
1.62132 0.707107 1.62132
2.41809 0.92388 1.0016
1.85072 0.92388 1.85072
2.61732 0.92388 0
2.41809 0.92388 1.0016
3 1 0
2.77164 1 1.14805
2.41809 0.92388 1.0016
1.85072 0.92388 1.85072
2.77164 1 1.14805
2.12132 1 2.12132
3 -1 0
2.77164 -1 1.14805
2.61732 -0.92388 0
2.41809 -0.92388 1.0016
2.77164 -1 1.14805
2.12132 -1 2.12132
2.41809 -0.92388 1.0016
1.85072 -0.92388 1.85072
2.61732 -0.92388 0
2.41809 -0.92388 1.0016
2.29289 -0.707107 0
2.11836 -0.707107 0.877452
2.41809 -0.92388 1.0016
1.85072 -0.92388 1.85072
2.11836 -0.707107 0.877452
1.62132 -0.707107 1.62132
1.62132 -0.707107 1.62132
0.877452 -0.707107 2.11836
1.46804 -0.382683 1.46804
0.794497 -0.382683 1.91809
0.877452 -0.707107 2.11836
1.40399e-16 -0.707107 2.29289
0.794497 -0.382683 1.91809
1.27126e-16 -0.382683 2.07612
1.46804 -0.382683 1.46804
0.794497 -0.382683 1.91809
1.41421 1.22465e-16 1.41421
0.765367 1.22465e-16 1.84776
0.794497 -0.382683 1.91809
1.27126e-16 -0.382683 2.07612
0.765367 1.22465e-16 1.84776
0 0 2
1.40399e-16 -0.707107 2.29289
-0.877452 -0.707107 2.11836
1.27126e-16 -0.382683 2.07612
-0.794497 -0.382683 1.91809
-0.877452 -0.707107 2.11836
-1.62132 -0.707107 1.62132
-0.794497 -0.382683 1.91809
-1.46804 -0.382683 1.46804
1.27126e-16 -0.382683 2.07612
-0.794497 -0.382683 1.91809
0 0 2
-0.765367 1.22465e-16 1.84776
-0.794497 -0.382683 1.91809
-1.46804 -0.382683 1.46804
-0.765367 1.22465e-16 1.84776
-1.41421 1.22465e-16 1.41421
0 0 4
-0.780361 0 3.92314
2.43753e-16 -0.19509 3.98079
-0.776613 -0.19509 3.9043
-0.780361 0 3.92314
-1.53073 0 3.69552
-0.776613 -0.19509 3.9043
-1.52338 -0.19509 3.67777
2.43753e-16 -0.19509 3.98079
-0.776613 -0.19509 3.9043
2.40268e-16 -0.382683 3.92388
-0.765511 -0.382683 3.84848
-0.776613 -0.19509 3.9043
-1.52338 -0.19509 3.67777
-0.765511 -0.382683 3.84848
-1.5016 -0.382683 3.62519
2.62132 -0.707107 2.62132
2.05956 -0.707107 3.08235
2.51417 -0.83147 2.51417
1.97537 -0.83147 2.95635
2.05956 -0.707107 3.08235
1.41865 -0.707107 3.42492
1.97537 -0.83147 2.95635
1.36066 -0.83147 3.28492
2.51417 -0.83147 2.51417
1.97537 -0.83147 2.95635
2.39192 -0.92388 2.39192
1.87932 -0.92388 2.8126
1.97537 -0.83147 2.95635
1.36066 -0.83147 3.28492
1.87932 -0.92388 2.8126
1.2945 -0.92388 3.12519
1.53073 0 3.69552
0.780361 0 3.92314
1.52338 -0.19509 3.67777
0.776613 -0.19509 3.9043
1.52338 -0.19509 3.67777
0.776613 -0.19509 3.9043
1.5016 -0.382683 3.62519
0.765511 -0.382683 3.84848
2.26995e-16 -0.707107 3.70711
-0.723221 -0.707107 3.63588
2.17716e-16 -0.83147 3.55557
-0.693657 -0.83147 3.48725
-0.723221 -0.707107 3.63588
-1.41865 -0.707107 3.42492
-0.693657 -0.83147 3.48725
-1.36066 -0.83147 3.28492
2.17716e-16 -0.83147 3.55557
-0.693657 -0.83147 3.48725
2.0713e-16 -0.92388 3.38268
-0.659929 -0.92388 3.31769
-0.693657 -0.83147 3.48725
-1.36066 -0.83147 3.28492
-0.659929 -0.92388 3.31769
-1.2945 -0.92388 3.12519
2.12132 1 2.12132
1.66671 1 2.49441
2.25927 0.980785 2.25927
[...]
POINT_DATA 2020
SCALARS U double 1
LOOKUP_TABLE default
-0.00016371 -0.000325421 -0.000187514 -0.000259279 -0.000173356 -0.000328838 -0.00016371 -0.000325421 -0.000202036 -0.000199282 -0.00020912 -0.000197514 -0.00020912 -0.000197514 -0.000196822 -0.000200858 -0.000198865 -0.000200334 -0.000201515 -0.000199466 -0.000201515 -0.000199466 -0.000202036 -0.000199282 -0.000198495 -0.000200401 -0.000198908 -0.000200285 -0.000198908 -0.000200285 -0.000198865 -0.000200334 -0.000196822 -0.000200858 -0.000200112 -0.00019997 -0.000200112 -0.00019997 -0.000198495 -0.000200401 -0.000199282 -0.000200832 -0.000197514 -0.000200884 -0.000200832 -0.000197381 -0.000200884 -0.000198933 -0.000197514 -0.000200884 -0.000200858 -0.000199731 -0.000200884 -0.000198933 -0.000199731 -0.00020022 -0.000200334 -0.000199796 -0.000199466 -0.000200614 -0.000199796 -0.000200484 -0.000200614 -0.000198074 -0.000199466 -0.000200614 -0.000199282 -0.000200832 -0.000200614 -0.000198074 -0.000200832 -0.000197381 -0.000200401 -0.000199898 -0.000200285 -0.000199949 -0.000199898 -0.000200009 -0.000199949 -0.00019992 -0.000200285 -0.000199949 -0.000200334 -0.000199796 -0.000199949 -0.00019992 -0.000199796 -0.000200484 -0.000200858 -0.000199731 -0.00019997 -0.00020001 -0.000199731 -0.00020022 -0.00020001 -0.00019999 -0.00019997 -0.00020001 -0.000200401 -0.000199898 -0.00020001 -0.00019999 -0.000199898 -0.000200009 -0.000197381 -0.000209686 -0.000198933 -0.000203388 -0.000209686 -0.00016371 -0.000203388 -0.000187514 -0.000198933 -0.000203388 -0.00020022 -0.000199387 -0.000203388 -0.000187514 -0.000199387 -0.000202233 -0.000200484 -0.000198263 -0.000198074 -0.000207117 -0.000198263 -0.000206481 -0.000207117 -0.000173356 -0.000198074 -0.000207117 -0.000197381 -0.000209686 -0.000207117 -0.000173356 -0.000209686 -0.00016371 -0.000200009 -0.000200067 -0.00019992 -0.000200374 -0.000200067 -0.000199722 -0.000200374 -0.000198583 -0.00019992 -0.000200374 -0.000200484 -0.000198263 -0.000200374 -0.000198583 -0.000198263 -0.000206481 -0.00020022 -0.000199387 -0.00019999 -0.000200031 -0.000199387 -0.000202233 -0.000200031 -0.000199885 -0.00019999 -0.000200031 -0.000200009 -0.000200067 -0.000200031 -0.000199885 -0.000200067 -0.000199722 -0.000181986 -0.000278493 -0.000182255 -0.000279002 -0.000206487 -0.000198495 -0.000206778 -0.000198701 -0.000206778 -0.000198701 -0.000205589 -0.000198908 -0.000205589 -0.000198908 -0.000206801 -0.000198886 -0.000206801 -0.000198886 -0.000204215 -0.000198865 -0.000203462 -0.000196822 -0.000207287 -0.000198467 -0.000207287 -0.000198467 -0.00019921 -0.000200112 -0.000242504 -9.10406e-05 -0.000328838 0.00131106 -0.000198583 -0.000198405 -0.000202532 -0.000196257 -0.000198405 -0.000208726 -0.000196257 -0.00020865 -0.000202532 -0.000196257 -0.000206481 -0.000209795 -0.000196257 -0.00020865 -0.000209795 -0.000170713 -0.000144887 -0.00020912 -0.000211334 -0.000202971 -0.000211334 -0.000202971 -0.000203462 -0.000196822 -0.000204215 -0.000198865 -0.000195925 -0.00020019 -0.000195925 -0.00020019 -0.000226982 -0.000201515 -0.000202233 -0.000203667 -0.000201059 -0.000197852 -0.000203667 -0.000191531 -0.000197852 -0.000205466 -0.000201059 -0.000197852 -0.000199885 -0.000199555 -0.000197852 -0.000205466 -0.000199555 -0.000202436 -0.000199885 -0.000199555 -0.000199804 -0.000197243 -0.000199555 -0.000202436 -0.000197243 -0.000211104 -0.000199804 -0.000197243 -0.000199722 -0.000204586 -0.000197243 -0.000211104 -0.000204586 -0.000181986 -0.000243599 -0.000202036 -0.00014318 -0.000205578 -0.000452834 -0.00014318 -0.000457538 -0.000144887 -0.00014318 -0.000205578 -0.000144887 -0.00020912 -0.000325421 0.00126434 -0.00029235 0.000900269 -0.00029235 0.000900269 -0.000259279 0.000784673 -0.00019921 -0.000200112 -0.000206443 -0.000199303 -0.000206443 -0.000199303 -0.000206487 -0.000198495 -0.000199722 -0.000204586 -0.000199153 -0.000204581 -0.000204586 -0.000181986 -0.000204581 -0.000182255 -0.000199153 -0.000204581 -0.000198583 -0.000198405 -0.000204581 -0.000182255 -0.000198405 -0.000208726 -0.000187514 -0.000223397 -0.000194874 -0.000200728 -0.000223397 -0.000259279 -0.000200728 -0.000167529 -0.000194874 -0.000200728 -0.000202233 -0.000203667 -0.000200728 -0.000167529 -0.000203667 -0.000191531 -0.000206481 -0.000209795 -0.000189919 -0.000174088 -0.000209795 -0.000170713 -0.000174088 -0.000242504 -0.000189919 -0.000174088 -0.000173356 -0.000251097 -0.000174088 -0.000242504 -0.000251097 -0.000328838 -0.000328838 0.00131106 -0.000327129 0.00102871 0.00131106 -8.24762e-05 0.00102871 -0.000499502 -0.000327129 0.00102871 -0.000325421 0.00126434 0.00102871 -0.000499502 0.00126434 -5.95322e-05 -8.24762e-05 -0.000226982 -0.000499502 -0.000123701 -0.000226982 -0.000201515 -0.000123701 -0.000201776 -0.000499502 -0.000123701 -5.95322e-05 -0.000243599 -0.000123701 -0.000201776 -0.000243599 -0.000202036 -0.000413037 -0.000150996 -0.000462057 -0.00013329 -0.000150996 -0.000206487 -0.00013329 -0.000206633 -0.000462057 -0.00013329 -0.000410378 -0.000151587 -0.00013329 -0.000206633 -0.000151587 -0.000206778 -0.000208726 -0.000167583 -0.000208688 -0.000188156 -0.000167583 -0.000331994 -0.000188156 -0.000236989 -0.000208688 -0.000188156 -0.00020865 -0.000179281 -0.000188156 -0.000236989 -0.000179281 -0.000275653 -0.000278493 0.000942077 -0.000278747 0.000936079 -0.000278747 0.000936079 -0.000279002 0.000944105 -0.00040299 -0.00015358 -0.000446383 -0.000137795 -0.00015358 -0.000205589 -0.000137795 -0.000206195 -0.000446383 -0.000137795 -0.000393806 -0.000155849 -0.000137795 -0.000206195 -0.000155849 -0.000206801 -0.000191531 -0.00030481 -0.000198499 -0.000182102 -0.00030481 0.000234798 -0.000182102 -0.000276477 -0.000198499 -0.000182102 -0.000205466 -0.000181789 -0.000182102 -0.000276477 -0.000181789 -0.000268657 -0.000165014 -0.000203462 -0.000152706 -0.000205374 -0.000422469 -0.000152706 -0.000398116 -0.000154574 -0.000152706 -0.000205374 -0.000154574 -0.000207287 -0.000154574 -0.000207287 -0.000207057 -0.000203248 -0.000207057 -0.000203248 -0.000210282 -0.00019921 -0.000331994 0.000951104 -0.000236989 0.00100025 -0.000205466 -0.000181789 -0.000203951 -0.00017841 -0.000181789 -0.000268657 -0.00017841 -0.000284045 -0.000203951 -0.00017841 -0.000202436 -0.000178783 -0.00017841 -0.000284045 -0.000178783 -0.000284545 -0.000315086 0.000959625 -0.00031511 0.00095687 -0.000155849 -0.000206801 -0.000212159 -0.000205508 -0.000212159 -0.000205508 -0.00016042 -0.000204215 0.000683625 0.00248479 -5.29515e-05 0.00233084 0.00248479 -0.000181986 0.00233084 -0.000160895 -0.000181986 -0.000204309 -0.000160895 -0.000205786 -0.000204309 -0.000211334 -0.000205786 -0.000207398 -0.000160895 -0.000205786 -0.000380464 -0.000165014 -0.000205786 -0.000207398 -0.000165014 -0.000203462 -0.000210282 -0.00019921 -0.000151998 -0.000202827 -0.00041347 -0.000151998 -0.000418012 -0.000149126 -0.000151998 -0.000202827 -0.000149126 -0.000206443 -0.000149126 -0.000206443 -0.000217042 -0.000206465 -0.000217042 -0.000206465 -0.000150996 -0.000206487 -0.000202436 -0.000178783 -0.00020677 -0.000169347 -0.000178783 -0.000284545 -0.000169347 -0.000315086 -0.00020677 -0.000169347 -0.000211104 -0.000171074 -0.000169347 -0.000315086 -0.000171074 -0.00031511 -0.000457538 -0.000301213 -0.000358705 -0.000145426 -0.000301213 -0.000144887 -0.000145426 -0.000178111 -0.000358705 -0.000145426 -0.000181986 -0.000204309 -0.000145426 -0.000178111 -0.000204309 -0.000211334 -0.000371376 -0.00016042 -0.000298381 -0.000178544 -0.00016042 -0.000204215 -0.000178544 -0.00020007 -0.000178544 -0.00020007 -0.000222215 -0.000195925 -0.000182255 -0.000230628 -0.00019549 -0.000170626 -0.000230628 -0.000279002 -0.000170626 -0.000281737 -0.00019549 -0.000170626 -0.000208726 -0.000167583 -0.000170626 -0.000281737 -0.000167583 -0.000331994 -0.00020865 -0.000179281 -0.000189681 -0.000182726 -0.000179281 -0.000275653 -0.000182726 -0.00028368 -0.000189681 -0.000182726 -0.000170713 -0.000298003 -0.000182726 -0.00028368 -0.000298003 0.000179012 -0.000151587 -0.000206778 -0.000216129 -0.000206184 -0.000216129 -0.000206184 -0.00015358 -0.000205589 0.00252383 -0.000457538 0.00290532 -0.000358705 -0.000211104 -0.000171074 -0.000196545 -0.000169526 -0.000171074 -0.00031511 -0.000169526 -0.000285853 -0.000196545 -0.000169526 -0.000181986 -0.000230239 -0.000169526 -0.000285853 -0.000230239 -0.000278493 -0.000259279 0.000262697 -0.000213404 -0.000455246 0.000262697 0.000784673 -0.000455246 0.00110187 -0.000213404 -0.000455246 -0.000167529 -0.000226874 -0.000455246 0.00110187 -0.000226874 0.000683625 -0.000167529 -0.000226874 -0.00017953 -0.000257625 -0.000226874 0.000683625 -0.000257625 -5.29515e-05 -0.00017953 -0.000257625 -0.000191531 -0.00030481 -0.000257625 -5.29515e-05 -0.00030481 0.000234798 -0.000170713 -0.000298003 -0.000206609 -0.00032894 -0.000298003 0.000179012 -0.00032894 0.000354072 -0.000206609 -0.00032894 -0.000242504 -0.000166772 -0.00032894 0.000354072 -0.000166772 -9.10406e-05 -9.10406e-05 0.00240471 0.000610011 0.00220615 0.00240471 -0.000121674 0.00220615 -0.000393512 0.000610011 0.00220615 0.00131106 0.000614293 0.00220615 -0.000393512 0.000614293 -8.24762e-05 -0.000121674 -0.000222215 -0.000393512 -0.000153904 -0.000222215 -0.000195925 -0.000153904 -0.000211454 -0.000393512 -0.000153904 -8.24762e-05 -0.000154729 -0.000153904 -0.000211454 -0.000154729 -0.000226982 -5.95322e-05 -0.000151566 -0.000647763 -8.32156e-05 -0.000151566 -0.000243599 -8.32156e-05 -0.00019339 -0.000647763 -8.32156e-05 -0.000452834 -0.000298007 -8.32156e-05 -0.00019339 -0.000298007 -0.00014318 0.00126434 0.000602402 0.0010823 0.00305168 0.000602402 -5.95322e-05 0.00305168 -0.000647763 0.0010823 0.00305168 0.000900269 0.00272042 0.00305168 -0.000647763 0.00272042 -0.000452834 0.000900269 0.00272042 0.000842471 0.00283612 0.00272042 -0.000452834 0.00283612 -0.000455186 0.000842471 0.00283612 0.000784673 0.00252383 0.00283612 -0.000455186 0.00252383 -0.000457538 -0.000268657 0.000905926 -0.000276351 0.000959212 0.000905926 0.00101038 0.000959212 0.000808712 -0.000276351 0.000959212 -0.000284045 0.000927983 0.000959212 0.000808712 0.000927983 0.000806326 -0.000284045 0.000927983 -0.000284295 0.00035557 0.000927983 0.000806326 0.00035557 0.000920415 -0.000284295 0.00035557 -0.000284545 0.000329846 0.00035557 0.000920415 0.000329846 0.000902274 0.000942077 0.00268162 0.000939078 0.00274208 0.00268162 -0.000413037 0.00274208 -0.000437547 0.000939078 0.00274208 0.000936079 0.00275216 0.00274208 -0.000437547 0.00275216 -0.000462057 0.000936079 0.00275216 0.000940092 0.00273964 0.00275216 -0.000462057 0.00273964 -0.000436218 0.000940092 0.00273964 0.000944105 0.00267601 0.00273964 -0.000436218 0.00267601 -0.000410378 -0.00028368 0.000935822 -5.2334e-05 0.00094972 0.000935822 0.000869953 0.00094972 0.000982047 -5.2334e-05 0.00094972 0.000179012 0.000791485 0.00094972 0.000982047 0.000791485 0.00188317 0.000951104 0.00266307 0.000975676 0.00271055 0.00266307 -0.00040299 0.00271055 -0.000424687 0.000975676 0.00271055 0.00100025 0.00270471 0.00271055 -0.000424687 0.00270471 -0.000446383 -0.000236989 0.00038163 -0.000256321 0.000989389 0.00038163 0.00100025 0.000989389 0.000747127 -0.000256321 0.000989389 -0.000275653 0.000906071 0.000989389 0.000747127 0.000906071 0.00101139 0.00100025 0.00270471 0.000747127 0.00276958 0.00270471 -0.000446383 0.00276958 -0.000420095 0.000747127 0.00276958 0.00101139 0.00261632 0.00276958 -0.000420095 0.00261632 -0.000393806 -0.000276477 0.000802706 -0.000272567 0.000928322 0.000802706 0.00146609 0.000928322 0.000932703 -0.000272567 0.000928322 -0.000268657 0.000905926 0.000928322 0.000932703 0.000905926 0.00101038 0.00146609 0.00248638 0.000932703 0.00276991 0.00248638 -0.000422469 0.00276991 -0.000410293 0.000932703 0.00276991 0.00101038 0.00263258 0.00276991 -0.000410293 0.00263258 -0.000398116 -0.000380464 -0.000272739 -0.000208343 -0.000227385 -0.000272739 -0.000165014 -0.000227385 -0.00015886 -0.000208343 -0.000227385 -0.000422469 -0.000287587 -0.000227385 -0.00015886 -0.000287587 -0.000152706 -0.000275653 0.000906071 -0.000279667 0.000950051 0.000906071 0.00101139 0.000950051 0.000834987 -0.000279667 0.000950051 -0.00028368 0.000935822 0.000950051 0.000834987 0.000935822 0.000869953 0.000959625 0.00266872 0.000958248 0.00272416 0.00266872 -0.00041347 0.00272416 -0.000415741 0.000958248 0.00272416 0.00095687 0.00267714 0.00272416 -0.000415741 0.00267714 -0.000418012 -0.000279002 0.000332551 -0.000280369 0.000318735 0.000332551 0.000944105 0.000318735 0.000888295 -0.000280369 0.000318735 -0.000281737 0.000334188 0.000318735 0.000888295 0.000334188 0.000897969 -0.000281737 0.000334188 -0.000306866 0.000328467 0.000334188 0.000897969 0.000328467 0.000887891 -0.000306866 0.000328467 -0.000331994 0.000309555 0.000328467 0.000887891 0.000309555 0.000951104 -0.000398116 -0.000276345 -0.000279254 -0.000193317 -0.000276345 -0.000154574 -0.000193317 -0.000180815 -0.000279254 -0.000193317 -0.000286919 -0.00017943 -0.000193317 -0.000180815 -0.00017943 -0.000207057 -0.000286919 -0.00017943 -0.000289576 -0.000180078 -0.00017943 -0.000207057 -0.000180078 -0.00020867 -0.000289576 -0.000180078 -0.000293015 -0.000176863 -0.000180078 -0.00020867 -0.000176863 -0.000210282 -0.000284545 0.000329846 -0.000299816 0.000325134 0.000329846 0.000902274 0.000325134 0.000886698 -0.000299816 0.000325134 -0.000315086 0.00032227 0.000325134 0.000886698 0.00032227 0.000959625 -0.000393806 -0.000274828 -0.000283176 -0.000192406 -0.000274828 -0.000155849 -0.000192406 -0.000184004 -0.000283176 -0.000192406 -0.0002648 -0.000181017 -0.000192406 -0.000184004 -0.000181017 -0.000212159 0.000234798 0.000768424 -2.08393e-05 0.00094563 0.000768424 0.00187607 0.00094563 0.000996004 -2.08393e-05 0.00094563 -0.000276477 0.000802706 0.00094563 0.000996004 0.000802706 0.00146609 -0.0002648 -0.000181017 -0.000208531 -0.000210221 -0.000181017 -0.000212159 -0.000210221 -0.00018629 -0.000208531 -0.000210221 -0.000371376 -0.000265898 -0.000210221 -0.00018629 -0.000265898 -0.00016042 -5.29515e-05 0.00113894 9.09234e-05 0.000864732 0.00113894 0.00233084 0.000864732 0.00193114 9.09234e-05 0.000864732 0.000234798 0.000768424 0.000864732 0.00193114 0.000768424 0.00187607 0.00233084 0.00108497 0.00193114 0.00198224 0.00108497 -0.000160895 0.00198224 -0.000270679 0.00193114 0.00198224 0.00187607 0.0020747 0.00198224 -0.000270679 0.0020747 -0.000380464 -0.000293015 -0.000176863 -0.000284414 -0.000191187 -0.000176863 -0.000210282 -0.000191187 -0.00018114 -0.000284414 -0.000191187 -0.00041347 -0.000282734 -0.000191187 -0.00018114 -0.000282734 -0.000151998 -0.000418012 -0.000283569 -0.00029003 -0.000189214 -0.000283569 -0.000149126 -0.000189214 -0.000183084 -0.00029003 -0.000189214 -0.000301958 -0.000171446 -0.000189214 -0.000183084 -0.000171446 -0.000217042 -0.000301958 -0.000171446 -0.000290367 -0.000188543 -0.000171446 -0.000217042 -0.000188543 -0.000184019 -0.000290367 -0.000188543 -0.000413037 -0.000282017 -0.000188543 -0.000184019 -0.000282017 -0.000150996 -0.00031511 0.00032088 -0.000300481 0.000326474 0.00032088 0.00095687 0.000326474 0.000881728 -0.000300481 0.000326474 -0.000285853 0.000336554 0.000326474 0.000881728 0.000336554 0.000893847 -0.000285853 0.000336554 -0.000282173 0.00031999 0.000336554 0.000893847 0.00031999 0.000885272 -0.000282173 0.00031999 -0.000278493 0.000331792 0.00031999 0.000885272 0.000331792 0.000942077 -0.000298381 -0.000238463 -0.000300726 -0.000175138 -0.000238463 -0.000178544 -0.000175138 -0.000200379 -0.000300726 -0.000175138 -0.000121674 -0.000171944 -0.000175138 -0.000200379 -0.000171944 -0.000222215 -0.000410378 -0.000280983 -0.000287186 -0.000189489 -0.000280983 -0.000151587 -0.000189489 -0.000183858 -0.000287186 -0.000189489 -0.000297886 -0.000172955 -0.000189489 -0.000183858 -0.000172955 -0.000216129 -0.000297886 -0.000172955 -0.000284261 -0.000190137 -0.000172955 -0.000216129 -0.000190137 -0.000184854 -0.000284261 -0.000190137 -0.00040299 -0.000278285 -0.000190137 -0.000184854 -0.000278285 -0.00015358 0.000784673 0.00165425 0.000943271 0.000922444 0.00165425 0.00252383 0.000922444 0.00271458 0.000943271 0.000922444 0.00110187 0.000724617 0.000922444 0.00271458 0.000724617 0.00290532 0.00110187 0.000724617 0.000892747 0.000739671 0.000724617 0.00290532 0.000739671 0.00315524 0.000892747 0.000739671 0.000683625 0.00158421 0.000739671 0.00315524 0.00158421 0.00248479 0.00290532 0.00127331 0.00315524 0.00170401 0.00127331 -0.000358705 0.00170401 -0.000270345 0.00315524 0.00170401 0.00248479 0.0011514 0.00170401 -0.000270345 0.0011514 -0.000181986 0.000179012 0.000791485 0.000266542 0.00076506 0.000791485 0.00188317 0.00076506 0.00194199 0.000266542 0.00076506 0.000354072 0.00073407 0.00076506 0.00194199 0.00073407 0.00194793 0.00188317 0.00204062 0.00194199 0.00212854 0.00204062 -0.000371376 0.00212854 -0.000334879 0.00194199 0.00212854 0.00194793 0.00216489 0.00212854 -0.000334879 0.00216489 -0.000298381 0.000354072 0.00073407 0.000131516 0.000855388 0.00073407 0.00194793 0.000855388 0.00192288 0.000131516 0.000855388 -9.10406e-05 0.00115684 0.000855388 0.00192288 0.00115684 0.00240471 0.00194793 0.00216489 0.00192288 0.00199685 0.00216489 -0.000298381 0.00199685 -0.000300726 0.00192288 0.00199685 0.00240471 0.00114152 0.00199685 -0.000300726 0.00114152 -0.000121674 0.00101038 0.00182148 0.000909549 0.00264332 0.00182148 0.00263258 0.00264332 0.00220964 0.000909549 0.00264332 0.000808712 0.00291916 0.00264332 0.00220964 0.00291916 0.00246379 0.00263258 0.00111723 0.00220964 0.000926681 0.00111723 -0.000398116 0.000926681 -0.000338685 0.00220964 0.000926681 0.00246379 0.000782779 0.000926681 -0.000338685 0.000782779 -0.000279254 0.000808712 0.00291916 0.000807519 0.00295114 0.00291916 0.00246379 0.00295114 0.00254586 0.000807519 0.00295114 0.000806326 0.00282927 0.00295114 0.00254586 0.00282927 0.00257261 0.00246379 0.000782779 0.00254586 0.000753922 0.000782779 -0.000279254 0.000753922 -0.000283086 0.00254586 0.000753922 0.00257261 0.000749412 0.000753922 -0.000283086 0.000749412 -0.000286919 0.000806326 0.00282927 0.00086337 0.00248021 0.00282927 0.00257261 0.00248021 0.00262868 0.00086337 0.00248021 0.000920415 0.00212867 0.00248021 0.00262868 0.00212867 0.00268438 0.00257261 0.000749412 0.00262868 0.000741286 0.000749412 -0.000286919 0.000741286 -0.000288247 0.00262868 0.000741286 0.00268438 0.000733378 0.000741286 -0.000288247 0.000733378 -0.000289576 0.000920415 0.00212867 0.000911345 0.00199276 0.00212867 0.00268438 0.00199276 0.00270178 0.000911345 0.00199276 0.000902274 0.00196053 0.00199276 0.00270178 0.00196053 0.00270658 0.00268438 0.000733378 0.00270178 0.000732018 0.000733378 -0.000289576 0.000732018 -0.000291296 0.00270178 0.000732018 0.00270658 0.00073198 0.000732018 -0.000291296 0.00073198 -0.000293015 0.00101139 0.00181386 0.000923191 0.00261368 0.00181386 0.00261632 0.00261368 0.00209435 0.000923191 0.00261368 0.000834987 0.00286502 0.00261368 0.00209435 0.00286502 0.00199045 0.00261632 0.00111126 0.00209435 0.000939301 0.00111126 -0.000393806 0.000939301 -0.000338491 0.00209435 0.000939301 0.00199045 0.000855606 0.000939301 -0.000338491 0.000855606 -0.000283176 0.000834987 0.00286502 0.00085247 0.00290758 0.00286502 0.00199045 0.00290758 0.00196045 0.00085247 0.00290758 0.000869953 0.0029148 0.00290758 0.00196045 0.0029148 0.00191795 0.00199045 0.000855606 0.00196045 0.000778335 0.000855606 -0.000283176 0.000778335 -0.000273988 0.00196045 0.000778335 0.00191795 0.000569628 0.000778335 -0.000273988 0.000569628 -0.0002648 0.000902274 0.00196053 0.000894486 0.00195511 0.00196053 0.00270658 0.00195511 0.00271059 0.000894486 0.00195511 0.000886698 0.00195762 0.00195511 0.00271059 0.00195762 0.0027136 0.00270658 0.00073198 0.00271059 0.000731922 0.00073198 -0.000293015 0.000731922 -0.000288714 0.00271059 0.000731922 0.0027136 0.000741295 0.000731922 -0.000288714 0.000741295 -0.000284414 0.000886698 0.00195762 0.000923161 0.00194907 0.00195762 0.0027136 0.00194907 0.00270588 0.000923161 0.00194907 0.000959625 0.00181417 0.00194907 0.00270588 0.00181417 0.0026