# vtk DataFile Version 3.0
#This file was generated by the deal.II library on 2023/3/1 at 4:17:20
ASCII
DATASET UNSTRUCTURED_GRID

FIELD FieldData 2
CYCLE 1 1 int
117
TIME 1 1 double
0.234
POINTS 8176 double
-1.62132 0.707107 -1.62132
-0.877452 0.707107 -2.11836
-1.85072 0.92388 -1.85072
-1.0016 0.92388 -2.41809
-1.85072 0.92388 -1.85072
-1.0016 0.92388 -2.41809
-2.12132 1 -2.12132
-1.14805 1 -2.77164
-2.12132 -1 -2.12132
-1.14805 -1 -2.77164
-1.85072 -0.92388 -1.85072
-1.0016 -0.92388 -2.41809
-1.14805 -1 -2.77164
0 -1 -3
-1.0016 -0.92388 -2.41809
-4.80793e-16 -0.92388 -2.61732
-3.69552 0 -1.53073
-2.82843 0 -2.82843
-3.62519 -0.382683 -1.5016
-2.7746 -0.382683 -2.7746
-1.41421 1.22465e-16 -1.41421
-0.765367 1.22465e-16 -1.84776
-1.46804 0.382683 -1.46804
-0.794497 0.382683 -1.91809
-0.794497 0.382683 -1.91809
-3.81377e-16 0.382683 -2.07612
-0.877452 0.707107 -2.11836
-4.21198e-16 0.707107 -2.29289
-1.46804 -0.382683 -1.46804
-0.794497 -0.382683 -1.91809
-1.41421 1.22465e-16 -1.41421
-0.765367 1.22465e-16 -1.84776
-2.82843 0 -2.82843
-1.53073 0 -3.69552
-2.7746 -0.382683 -2.7746
-1.5016 -0.382683 -3.62519
-1.53073 0 -3.69552
0 0 -4
-1.5016 -0.382683 -3.62519
-7.20805e-16 -0.382683 -3.92388
-2.7746 -0.382683 -2.7746
-1.5016 -0.382683 -3.62519
-2.62132 -0.707107 -2.62132
-1.41865 -0.707107 -3.42492
-1.5016 -0.382683 -3.62519
-7.20805e-16 -0.382683 -3.92388
-1.41865 -0.707107 -3.42492
-6.80984e-16 -0.707107 -3.70711
-2.62132 -0.707107 -2.62132
-1.41865 -0.707107 -3.42492
-2.39192 -0.92388 -2.39192
-1.2945 -0.92388 -3.12519
-1.41865 -0.707107 -3.42492
-6.80984e-16 -0.707107 -3.70711
-1.2945 -0.92388 -3.12519
-6.21389e-16 -0.92388 -3.38268
-2.39192 -0.92388 -2.39192
-1.2945 -0.92388 -3.12519
-2.12132 -1 -2.12132
-1.14805 -1 -2.77164
-1.2945 -0.92388 -3.12519
-6.21389e-16 -0.92388 -3.38268
-1.14805 -1 -2.77164
0 -1 -3
-2.12132 1 -2.12132
-1.14805 1 -2.77164
-2.39192 0.92388 -2.39192
-1.2945 0.92388 -3.12519
-1.14805 1 -2.77164
0 1 -3
-1.2945 0.92388 -3.12519
-6.21389e-16 0.92388 -3.38268
-2.39192 0.92388 -2.39192
-1.2945 0.92388 -3.12519
-2.62132 0.707107 -2.62132
-1.41865 0.707107 -3.42492
-3.62519 0.382683 -1.5016
-2.7746 0.382683 -2.7746
-3.69552 0 -1.53073
-2.82843 0 -2.82843
-2.62132 0.707107 -2.62132
-1.41865 0.707107 -3.42492
-2.7746 0.382683 -2.7746
-1.5016 0.382683 -3.62519
-1.41865 0.707107 -3.42492
-6.80984e-16 0.707107 -3.70711
-1.5016 0.382683 -3.62519
-7.20805e-16 0.382683 -3.92388
-2.7746 0.382683 -2.7746
-1.5016 0.382683 -3.62519
-2.82843 0 -2.82843
-1.53073 0 -3.69552
-1.5016 0.382683 -3.62519
-7.20805e-16 0.382683 -3.92388
-1.53073 0 -3.69552
0 0 -4
-1.84776 1.22465e-16 0.765367
-2 0 0
-1.91809 0.382683 0.794497
-2.07612 0.382683 2.54251e-16
-2.41809 0.92388 1.0016
-2.61732 0.92388 3.20529e-16
-2.77164 1 1.14805
-3 1 0
-2.12132 -1 2.12132
-2.77164 -1 1.14805
-1.85072 -0.92388 1.85072
-2.41809 -0.92388 1.0016
-2.77164 -1 1.14805
-3 -1 0
-2.41809 -0.92388 1.0016
-2.61732 -0.92388 3.20529e-16
-1.85072 -0.92388 1.85072
-2.41809 -0.92388 1.0016
-1.62132 -0.707107 1.62132
-2.11836 -0.707107 0.877452
-2.41809 -0.92388 1.0016
-2.61732 -0.92388 3.20529e-16
-2.11836 -0.707107 0.877452
-2.29289 -0.707107 2.80798e-16
-3.62519 -0.382683 1.5016
-3.92388 -0.382683 4.80537e-16
-3.42492 -0.707107 1.41865
-3.70711 -0.707107 4.5399e-16
-2.62132 -0.707107 2.62132
-3.42492 -0.707107 1.41865
-2.39192 -0.92388 2.39192
-3.12519 -0.92388 1.2945
-3.42492 -0.707107 1.41865
-3.70711 -0.707107 4.5399e-16
-3.12519 -0.92388 1.2945
-3.38268 -0.92388 4.14259e-16
-2.12132 1 2.12132
-2.77164 1 1.14805
-2.39192 0.92388 2.39192
-3.12519 0.92388 1.2945
-2.39192 0.92388 2.39192
-3.12519 0.92388 1.2945
-2.62132 0.707107 2.62132
-3.42492 0.707107 1.41865
-3.12519 0.92388 1.2945
-3.38268 0.92388 4.14259e-16
-3.42492 0.707107 1.41865
-3.70711 0.707107 4.5399e-16
-3.42492 0.707107 1.41865
-3.70711 0.707107 4.5399e-16
-3.62519 0.382683 1.5016
-3.92388 0.382683 4.80537e-16
-1.84776 1.22465e-16 -0.765367
-1.41421 1.22465e-16 -1.41421
-1.91809 0.382683 -0.794497
-1.46804 0.382683 -1.46804
-2.07612 0.382683 2.54251e-16
-1.91809 0.382683 -0.794497
-2.29289 0.707107 2.80798e-16
-2.11836 0.707107 -0.877452
-2.11836 0.707107 -0.877452
-1.62132 0.707107 -1.62132
-2.41809 0.92388 -1.0016
-1.85072 0.92388 -1.85072
-2.61732 -0.92388 3.20529e-16
-2.41809 -0.92388 -1.0016
-2.29289 -0.707107 2.80798e-16
-2.11836 -0.707107 -0.877452
-2.41809 -0.92388 -1.0016
-1.85072 -0.92388 -1.85072
-2.11836 -0.707107 -0.877452
-1.62132 -0.707107 -1.62132
-2.11836 -0.707107 -0.877452
-1.62132 -0.707107 -1.62132
-1.91809 -0.382683 -0.794497
-1.46804 -0.382683 -1.46804
-1.91809 -0.382683 -0.794497
-1.46804 -0.382683 -1.46804
-1.84776 1.22465e-16 -0.765367
-1.41421 1.22465e-16 -1.41421
-3.70711 -0.707107 4.5399e-16
-3.42492 -0.707107 -1.41865
-3.38268 -0.92388 4.14259e-16
-3.12519 -0.92388 -1.2945
-3.38268 -0.92388 4.14259e-16
-3.12519 -0.92388 -1.2945
-3 -1 0
-2.77164 -1 -1.14805
-3.12519 -0.92388 -1.2945
-2.39192 -0.92388 -2.39192
-2.77164 -1 -1.14805
-2.12132 -1 -2.12132
-3 1 0
-2.77164 1 -1.14805
-3.38268 0.92388 4.14259e-16
-3.12519 0.92388 -1.2945
-2.77164 1 -1.14805
-2.12132 1 -2.12132
-3.12519 0.92388 -1.2945
-2.39192 0.92388 -2.39192
-3.38268 0.92388 4.14259e-16
-3.12519 0.92388 -1.2945
-3.70711 0.707107 4.5399e-16
-3.42492 0.707107 -1.41865
0 0 -2
0.765367 1.22465e-16 -1.84776
-3.81377e-16 0.382683 -2.07612
0.794497 0.382683 -1.91809
0.765367 1.22465e-16 -1.84776
1.41421 1.22465e-16 -1.41421
0.794497 0.382683 -1.91809
1.46804 0.382683 -1.46804
0.794497 0.382683 -1.91809
1.46804 0.382683 -1.46804
0.877452 0.707107 -2.11836
1.62132 0.707107 -1.62132
-4.21198e-16 0.707107 -2.29289
0.877452 0.707107 -2.11836
-4.80793e-16 0.92388 -2.61732
1.0016 0.92388 -2.41809
-4.21198e-16 -0.707107 -2.29289
0.877452 -0.707107 -2.11836
-3.81377e-16 -0.382683 -2.07612
0.794497 -0.382683 -1.91809
0.877452 -0.707107 -2.11836
1.62132 -0.707107 -1.62132
0.794497 -0.382683 -1.91809
1.46804 -0.382683 -1.46804
-3.81377e-16 -0.382683 -2.07612
0.794497 -0.382683 -1.91809
0 0 -2
0.765367 1.22465e-16 -1.84776
0.794497 -0.382683 -1.91809
1.46804 -0.382683 -1.46804
0.765367 1.22465e-16 -1.84776
1.41421 1.22465e-16 -1.41421
0 1 -3
1.14805 1 -2.77164
-6.21389e-16 0.92388 -3.38268
1.2945 0.92388 -3.12519
3.42492 -0.707107 -1.41865
3.70711 -0.707107 0
3.12519 -0.92388 -1.2945
3.38268 -0.92388 0
3.12519 0.92388 -1.2945
3.38268 0.92388 0
3.42492 0.707107 -1.41865
3.70711 0.707107 0
2.11836 0.707107 0.877452
1.90647 0.707107 1.27386
2.25836 0.83147 0.935443
2.03247 0.83147 1.35805
1.90647 0.707107 1.27386
1.62132 0.707107 1.62132
2.03247 0.83147 1.35805
1.72847 0.83147 1.72847
2.03247 0.83147 1.35805
1.72847 0.83147 1.72847
2.17622 0.92388 1.4541
1.85072 0.92388 1.85072
3.70711 -0.707107 0
3.63588 -0.707107 0.723221
3.55557 -0.83147 0
3.48725 -0.83147 0.693657
3.63588 -0.707107 0.723221
3.42492 -0.707107 1.41865
3.48725 -0.83147 0.693657
3.28492 -0.83147 1.36066
3.55557 -0.83147 0
3.48725 -0.83147 0.693657
3.38268 -0.92388 0
3.31769 -0.92388 0.659929
3.48725 -0.83147 0.693657
3.28492 -0.83147 1.36066
3.31769 -0.92388 0.659929
3.12519 -0.92388 1.2945
2.61732 0.92388 0
2.56703 0.92388 0.510613
2.80491 0.980785 0
2.75101 0.980785 0.547211
2.41809 -0.92388 1.0016
2.17622 -0.92388 1.4541
2.25836 -0.83147 0.935443
2.03247 -0.83147 1.35805
2.17622 -0.92388 1.4541
1.85072 -0.92388 1.85072
2.03247 -0.83147 1.35805
1.72847 -0.83147 1.72847
2.25836 -0.83147 0.935443
2.03247 -0.83147 1.35805
2.11836 -0.707107 0.877452
1.90647 -0.707107 1.27386
2.03247 -0.83147 1.35805
1.72847 -0.83147 1.72847
1.90647 -0.707107 1.27386
1.62132 -0.707107 1.62132
2.80491 -0.980785 0
2.75101 -0.980785 0.547211
2.61732 -0.92388 0
2.56703 -0.92388 0.510613
3.12519 -0.92388 1.2945
2.8126 -0.92388 1.87932
2.95188 -0.980785 1.22271
2.65662 -0.980785 1.7751
2.8126 -0.92388 1.87932
2.39192 -0.92388 2.39192
2.65662 -0.980785 1.7751
2.25927 -0.980785 2.25927
2.95188 -0.980785 1.22271
2.65662 -0.980785 1.7751
2.77164 -1 1.14805
2.49441 -1 1.66671
2.65662 -0.980785 1.7751
2.25927 -0.980785 2.25927
2.49441 -1 1.66671
2.12132 -1 2.12132
-0.877452 0.707107 -2.11836
-0.447321 0.707107 -2.24884
-0.935443 0.83147 -2.25836
-0.476885 0.83147 -2.39746
-0.447321 0.707107 -2.24884
-4.21198e-16 0.707107 -2.29289
-0.476885 0.83147 -2.39746
-4.49034e-16 0.83147 -2.44443
-0.935443 0.83147 -2.25836
-0.476885 0.83147 -2.39746
-1.0016 0.92388 -2.41809
-0.510613 0.92388 -2.56703
-0.476885 0.83147 -2.39746
-4.49034e-16 0.83147 -2.44443
-0.510613 0.92388 -2.56703
-4.80793e-16 0.92388 -2.61732
-1.0016 0.92388 -2.41809
-0.510613 0.92388 -2.56703
-1.07339 0.980785 -2.5914
-0.547211 0.980785 -2.75101
-0.510613 0.92388 -2.56703
-4.80793e-16 0.92388 -2.61732
-0.547211 0.980785 -2.75101
-5.15254e-16 0.980785 -2.80491
-1.07339 0.980785 -2.5914
-0.547211 0.980785 -2.75101
-1.14805 1 -2.77164
-0.585271 1 -2.94236
-0.547211 0.980785 -2.75101
-5.15254e-16 0.980785 -2.80491
-0.585271 1 -2.94236
0 1 -3
3.08235 -0.707107 2.05956
2.62132 -0.707107 2.62132
2.95635 -0.83147 1.97537
2.51417 -0.83147 2.51417
2.95635 -0.83147 1.97537
2.51417 -0.83147 2.51417
2.8126 -0.92388 1.87932
2.39192 -0.92388 2.39192
2.77164 1 1.14805
2.49441 1 1.66671
2.95188 0.980785 1.22271
2.65662 0.980785 1.7751
2.49441 1 1.66671
2.12132 1 2.12132
2.65662 0.980785 1.7751
2.25927 0.980785 2.25927
2.95188 0.980785 1.22271
2.65662 0.980785 1.7751
3.12519 0.92388 1.2945
2.8126 0.92388 1.87932
2.65662 0.980785 1.7751
2.25927 0.980785 2.25927
2.8126 0.92388 1.87932
2.39192 0.92388 2.39192
-4 0 0
-3.92314 0 -0.780361
-3.98079 -0.19509 4.87506e-16
-3.9043 -0.19509 -0.776613
-3.92314 0 -0.780361
-3.69552 0 -1.53073
-3.9043 -0.19509 -0.776613
-3.67777 -0.19509 -1.52338
-3.98079 -0.19509 4.87506e-16
-3.9043 -0.19509 -0.776613
-3.92388 -0.382683 4.80537e-16
-3.84848 -0.382683 -0.765511
-3.9043 -0.19509 -0.776613
-3.67777 -0.19509 -1.52338
-3.84848 -0.382683 -0.765511
-3.62519 -0.382683 -1.5016
-1.85072 -0.92388 -1.85072
-1.4541 -0.92388 -2.17622
-1.72847 -0.83147 -1.72847
-1.35805 -0.83147 -2.03247
[...]
POINT_DATA 8176
SCALARS U double 1
LOOKUP_TABLE default
0.00238515 0.00300555 0.00234933 0.00273906 0.00234933 0.00273906 0.002263 0.00245789 0.00225897 0.00236599 0.00233898 0.0026343 0.00236599 0.00235433 0.0026343 0.00265455 0.000585103 0.00224985 0.000713295 0.00223786 0.0024551 0.00317345 0.00240814 0.00313723 0.00313723 0.00322088 0.00300555 0.00319519 0.00242457 0.00311364 0.0024551 0.00317345 0.00224985 0.00247527 0.00223786 0.00242407 0.00247527 0.00241563 0.00242407 0.00243798 0.00223786 0.00242407 0.0022069 0.0023356 0.00242407 0.00243798 0.0023356 0.00240385 0.0022069 0.0023356 0.00219759 0.00229464 0.0023356 0.00240385 0.00229464 0.00230746 0.00219759 0.00229464 0.00225897 0.00236599 0.00229464 0.00230746 0.00236599 0.00235433 0.002263 0.00245789 0.00219788 0.0023274 0.00245789 0.00268814 0.0023274 0.00240222 0.00219788 0.0023274 0.00220611 0.00234194 0.000713299 0.00223793 0.000585103 0.00224985 0.00220611 0.00234194 0.00223793 0.00242359 0.00234194 0.00241831 0.00242359 0.00243741 0.00223793 0.00242359 0.00224985 0.00247527 0.00242359 0.00243741 0.00247527 0.00241563 0.00220752 0.00295484 0.00222818 0.00291821 0.00208068 0.00233266 0.00192233 0.00181431 0.00161408 0.00201191 0.00174262 0.00228163 0.00201191 0.00179791 0.00228163 0.00230143 0.00174262 0.00228163 0.00175286 0.00240562 0.00228163 0.00230143 0.00240562 0.00270182 0.00126503 0.000519306 0.00145985 0.000793407 0.00183805 0.00145985 0.00171582 0.00172059 0.00145985 0.000793407 0.00172059 0.00126549 0.00150266 0.00192233 0.00167652 0.00169894 0.00167652 0.00169894 0.00183249 0.00145459 0.00169894 0.00126331 0.00145459 0.000793086 0.00145459 0.000793086 0.00126352 0.000519492 0.00261229 0.0024551 0.00257175 0.00240814 0.00291821 0.00257175 0.00270752 0.00250866 0.00250866 0.00238515 0.00246154 0.00234933 0.00230143 0.00246113 0.00270182 0.00249029 0.00246113 0.00233898 0.00249029 0.00238723 0.00249029 0.00238723 0.00255761 0.00242457 0.00255761 0.00242457 0.00261229 0.0024551 0.000793407 0.00114099 0.00126549 0.00177085 0.00126549 0.00177085 0.00179791 0.0022851 0.00177085 0.00219759 0.0022851 0.00225897 0.00181431 0.00228474 0.00126331 0.00177178 0.00228474 0.002263 0.00177178 0.00219788 0.00126331 0.00177178 0.000793086 0.00114083 0.00320276 0.00275392 0.00322088 0.00275039 0.00275392 0.00165035 0.00275039 0.00160051 0.00275039 0.00160051 0.00268505 0.00142813 0.00319519 0.00268505 0.00304979 0.00258963 0.00298866 0.00267103 0.00316406 0.0027436 0.00267103 0.0015495 0.0027436 0.0016193 0.00316406 0.0027436 0.00320276 0.00275392 0.0027436 0.0016193 0.00275392 0.00165035 0.00268814 0.00250494 0.00240222 0.00249249 0.000237994 0.000415045 0.000292287 0.000712035 0.000292223 0.000712739 0.000237958 0.000415368 0.00362378 0.0037413 0.00333008 0.00348906 0.0037413 0.00417769 0.00348906 0.00419988 0.00348906 0.00419988 0.00321327 0.00383653 0.000415045 0.000969452 0.00056354 0.00112362 0.000969452 0.00105678 0.00112362 0.00132064 0.00056354 0.00112362 0.000712035 0.00162071 0.00112362 0.00132064 0.00162071 0.0018119 0.00202179 0.00324382 0.00152963 0.00302793 0.00325672 0.00315542 0.00358842 0.00344434 0.00315542 0.00329498 0.00344434 0.00347049 0.00358842 0.00344434 0.00387251 0.00373339 0.00344434 0.00347049 0.00373339 0.003587 0.00153288 0.00303211 0.00202059 0.00327455 0.0018119 0.00253307 0.00239353 0.00278899 0.00253307 0.00271967 0.00278899 0.00296249 0.00239353 0.00278899 0.00281448 0.00294555 0.00278899 0.00296249 0.00294555 0.00305579 0.00300555 0.00310037 0.00287231 0.00301399 0.00310037 0.00319519 0.00301399 0.00312249 0.00287231 0.00301399 0.00273906 0.00289485 0.00301399 0.00312249 0.00289485 0.00304979 0.00273906 0.00289485 0.00259847 0.00274032 0.00289485 0.00304979 0.00274032 0.00287086 0.00259847 0.00274032 0.00245789 0.00257301 0.00274032 0.00287086 0.00257301 0.00268814 0.00234694 0.00242019 0.0023648 0.00250363 0.0023648 0.00250363 0.00253307 0.00271967 0.00281045 0.00295762 0.00239341 0.00280109 0.00295762 0.00310355 0.00280109 0.00297658 0.00239341 0.00280109 0.00181079 0.00254773 0.00280109 0.00297658 0.00254773 0.00273854 0.000430305 0.000693042 0.000448033 0.000704855 0.000693042 0.000585103 0.000704855 0.000649199 0.000448033 0.000704855 0.000519306 0.000770738 0.000704855 0.000649199 0.000770738 0.000713295 0.00233898 0.00248664 0.00236311 0.00257819 0.00248664 0.0026343 0.00257819 0.00279011 0.00236311 0.00257819 0.00238723 0.00266135 0.00257819 0.00279011 0.00266135 0.00293441 0.00254773 0.00273854 0.00237793 0.00252295 0.00237793 0.00252295 0.00235691 0.00244043 0.00240043 0.00306413 0.00239599 0.00306956 0.00306413 0.00323058 0.00306956 0.00323036 0.00239599 0.00306956 0.00242019 0.00307816 0.00306956 0.00323036 0.00307816 0.00327294 0.000519306 0.000770738 0.000656356 0.000870447 0.000770738 0.000713295 0.000870447 0.000882024 0.000656356 0.000870447 0.000793407 0.0009672 0.000870447 0.000882024 0.0009672 0.00114099 0.000713295 0.00147558 0.000882024 0.00157976 0.00147558 0.00223786 0.00157976 0.00222238 0.000882024 0.00157976 0.00114099 0.00167767 0.00157976 0.00222238 0.00167767 0.0022069 0.00327455 0.00325672 0.00347644 0.00358842 0.000712739 0.00161997 0.000564053 0.00112328 0.00161997 0.00181079 0.00112328 0.00132054 0.000564053 0.00112328 0.000415368 0.000969628 0.00112328 0.00132054 0.000969628 0.00105772 0.0026343 0.00264442 0.00279011 0.00281562 0.00264442 0.00265455 0.00281562 0.00282242 0.00279011 0.00281562 0.00293441 0.00296453 0.00281562 0.00282242 0.00296453 0.00298866 0.000793086 0.00096696 0.000656289 0.000870495 0.00096696 0.00114083 0.000870495 0.000881907 0.000656289 0.000870495 0.000519492 0.000770686 0.000870495 0.000881907 0.000770686 0.000713299 0.00114083 0.00167728 0.000881907 0.00157951 0.00167728 0.00220611 0.00157951 0.00222202 0.000881907 0.00157951 0.000713299 0.00147561 0.00157951 0.00222202 0.00147561 0.00223793 0.000519492 0.000770686 0.000447937 0.000704876 0.000770686 0.000713299 0.000704876 0.000649201 0.000447937 0.000704876 0.000430305 0.000693042 0.000704876 0.000649201 0.000693042 0.000585103 0.00383653 0.00418553 0.00334567 0.00380308 0.00418553 0.00423207 0.00380308 0.00390398 0.00334567 0.00380308 0.00310355 0.00356508 0.00380308 0.00390398 0.00356508 0.00368963 0.00305579 0.00355605 0.00311274 0.00372145 0.00355605 0.00369128 0.00372145 0.0038914 0.00311274 0.00372145 0.00329498 0.00394365 0.00372145 0.0038914 0.00394365 0.00418243 0.00317345 0.00319648 0.00315534 0.00319799 0.00319648 0.00320276 0.00319799 0.00321182 0.00315534 0.00319799 0.00313723 0.00317905 0.00319799 0.00321182 0.00317905 0.00322088 0.00240814 0.00277268 0.00240375 0.00273355 0.00277268 0.00313723 0.00273355 0.00307139 0.00240375 0.00273355 0.00238515 0.00269535 0.00273355 0.00307139 0.00269535 0.00300555 0.000712035 0.00162071 0.00090461 0.0022506 0.00238723 0.00266135 0.0024059 0.00272049 0.00266135 0.00293441 0.00272049 0.00303194 0.0024059 0.00272049 0.00242457 0.0027691 0.00272049 0.00303194 0.0027691 0.00311364 0.00293441 0.00296453 0.00303194 0.00306964 0.00296453 0.00298866 0.00306964 0.00307636 0.00303194 0.00306964 0.00311364 0.00314155 0.00306964 0.00307636 0.00314155 0.00316406 0.000904603 0.00225006 0.000712739 0.00161997 0.00311364 0.00314155 0.00314354 0.00318161 0.00314155 0.00316406 0.00318161 0.00318341 0.00314354 0.00318161 0.00317345 0.00319648 0.00318161 0.00318341 0.00319648 0.00320276 0.00273854 0.00321932 0.00252295 0.00312624 0.00321932 0.00343688 0.00312624 0.00336382 0.00252295 0.00312624 0.00244043 0.00309784 0.00312624 0.00336382 0.00309784 0.00329768 0.00134971 0.00248177 0.00127306 0.00243553 0.0023274 0.00236481 0.00233467 0.00236266 0.00236481 0.00240222 0.00236266 0.00239731 0.00233467 0.00236266 0.00234194 0.00238013 0.00236266 0.00239731 0.00238013 0.00241831 0.00359731 0.00236356 0.00367181 0.00241962 0.00236356 0.00161408 0.00241962 0.00167835 0.00367181 0.00241962 0.00373698 0.00237353 0.00241962 0.00167835 0.00237353 0.00174262 0.00345498 0.0025192 0.00341469 0.00247357 0.0025192 0.00192495 0.00247357 0.00196615 0.00341469 0.00247357 0.00347146 0.0024491 0.00247357 0.00196615 0.0024491 0.00192565 0.00159415 0.00174055 0.00169371 0.00174474 0.00174055 0.00220752 0.00174474 0.00221785 0.00169371 0.00174474 0.0016598 0.0018129 0.00174474 0.00221785 0.0018129 0.00222818 0.00127336 0.00245331 0.00134971 0.00248177 0.00210685 0.0015119 0.00213593 0.00150059 0.00531815 0.00516579 0.00520699 0.00509085 0.00394365 0.00418243 0.00410537 0.00457914 0.00347049 0.00410537 0.003587 0.00419611 0.00410537 0.00457914 0.00419611 0.00496467 0.00069456 0.00134971 0.000787837 0.00127306 0.000204081 0.000787837 0.000215658 0.000950543 0.000787837 0.00127306 0.000950543 0.00113166 0.002051 0.00152746 0.00223231 0.00150266 0.00323879 0.00237609 0.00323233 0.00237207 0.00323233 0.00237207 0.00323058 0.00238594 0.00237353 0.00174262 0.00218408 0.00174774 0.00218408 0.00174774 0.00251753 0.00175286 0.00323058 0.00238594 0.00323036 0.00240998 0.00113166 0.00240677 0.00101834 0.0023695 0.00329768 0.00251989 0.00327136 0.00245795 0.00327136 0.00245795 0.00325382 0.00241565 0.000950543 0.00113166 0.00100186 0.00101834 0.000285253 0.00100186 0.000415045 0.000969452 0.00325382 0.00241565 0.00324547 0.00239051 0.00324547 0.00239051 0.00323879 0.00237609 0.0037602 0.00456842 0.00383769 0.00459396 0.00101958 0.00237665 0.00113197 0.00241917 0.00242019 0.00307816 0.00250363 0.00311892 0.00307816 0.00327294 0.00311892 0.00332858 0.00250363 0.00311892 0.00271967 0.00322125 0.00311892 0.00332858 0.00322125 0.00341074 0.00396303 0.00455352 0.00392159 0.00419478 0.00364645 0.00392159 0.003775 0.00392195 0.00347146 0.0024491 0.00249715 0.00230943 0.0024491 0.00192565 0.00230943 0.00186244 0.00230943 0.00186244 0.00221156 0.00183805 0.003775 0.00392195 0.00379892 0.00388511 0.00379892 0.00388511 0.00362378 0.0037413 0.00372484 0.00449323 0.00363716 0.00441477 0.00221156 0.00183805 0.00218598 0.00177693 0.00218598 0.00177693 0.00212689 0.00171582 0.00210433 0.00167652 0.00216132 0.00175451 0.00216132 0.00175451 0.00223505 0.00183249 0.00456842 0.00251753 0.00459396 0.00278084 0.00247624 0.00223505 0.00342063 0.00237131 0.00223505 0.00183249 0.00237131 0.00183614 0.00342063 0.00237131 0.00335621 0.00242026 0.00237131 0.00183614 0.00242026 0.00193409 0.00233168 0.0016311 0.00230507 0.00159415 0.000215591 0.000951034 0.000204042 0.000788132 0.000951034 0.00113197 0.000788132 0.00127336 0.000788132 0.00127336 0.00069456 0.00134971 0.00284338 0.00212689 0.00352718 0.00233703 0.00212689 0.00171582 0.00233703 0.00158024 0.00352718 0.00233703 0.00359731 0.00236356 0.00233703 0.00158024 0.00236356 0.00161408 0.00271967 0.00322125 0.00296249 0.00339092 0.00322125 0.00341074 0.00339092 0.0035306 0.00339092 0.0035306 0.00355605 0.00369128 0.0016598 0.0018129 0.00165353 0.00184559 0.0018129 0.00222818 0.00184559 0.00222654 0.00165353 0.00184559 0.00165945 0.00183124 0.00184559 0.00222654 0.00183124 0.00221554 0.00356508 0.00368963 0.00338691 0.00354329 0.00297658 0.00338691 0.00273854 0.00321932 0.00338691 0.00354329 0.00321932 0.00343688 0.000415368 0.000969628 0.000285287 0.00100227 0.00100227 0.00101958 0.000951034 0.00113197 0.00165945 0.00183124 0.0015119 0.00183646 0.00183124 0.00221554 0.00183646 0.00215427 0.0015119 0.00183646 0.00150059 0.00180457 0.00183646 0.00215427 0.00180457 0.00208068 0.00349084 0.00223231 0.0035363 0.00228744 0.00223231 0.00150266 0.00228744 0.00158959 0.0035363 0.00228744 0.00282087 0.00210433 0.00228744 0.00158959 0.00210433 0.00167652 0.00455352 0.00486615 0.00419478 0.00458304 0.00486615 0.00531815 0.00458304 0.00520699 0.00419478 0.00458304 0.00391067 0.0043888 0.00458304 0.00520699 0.0043888 0.00511215 0.00375507 0.00387166 0.00371988 0.00384652 0.00387166 0.00359061 0.00384652 0.00364645 0.00371988 0.00384652 0.00361283 0.00377549 0.00384652 0.00364645 0.00377549 0.003775 0.00335621 0.00242026 0.00342307 0.00247641 0.00242026 0.00193409 0.00247641 0.00196652 0.00342307 0.00247641 0.00345498 0.0025192 0.00247641 0.00196652 0.0025192 0.00192495 0.00222818 0.00257319 0.00222654 0.00253724 0.00257319 0.00291821 0.00253724 0.00281286 0.00222654 0.00253724 0.00221554 0.00246444 0.00253724 0.00281286 0.00246444 0.00270752 0.00221554 0.00246444 0.00215427 0.00235333 0.00246444 0.00270752 0.00235333 0.00252493 0.00215427 0.00235333 0.00208068 0.00220667 0.00235333 0.00252493 0.00220667 0.00233266 0.00175286 0.00207924 0.00183848 0.00195217 0.00207924 0.00240562 0.00195217 0.00235631 0.00183848 0.00195217 0.00178485 0.00182955 0.00195217 0.00235631 0.00182955 0.00230746 0.00190796 0.00119724 0.00189618 0.00120479 0.00196615 0.00189618 0.00192565 0.00174952 0.00150059 0.00180457 0.00152746 0.00178835 0.00180457 0.00208068 0.00178835 0.00200151 0.00152746 0.00178835 0.00150266 0.00171249 0.00178835 0.00200151 0.00171249 0.00192233 0.00240562 0.00255372 0.00235631 0.00259758 0.00255372 0.00270182 0.00259758 0.00280586 0.00235631 0.00259758 0.00230746 0.00261727 0.00259758 0.00280586 0.00261727 0.00288798 0.002294 0.00275566 0.00196146 0.00228653 0.00275566 0.00307668 0.00228653 0.00258497 0.00196146 0.00228653 0.00146727 0.00166415 0.00228653 0.00258497 0.00166415 0.00202179 0.00114592 0.00123918 0.000964502 0.000962703 0.00123918 0.00146727 0.000962703 0.000952242 0.000964502 0.000962703 0.000808305 0.000764043 0.000962703 0.000952242 0.000764043 0.000579963 0.00230746 0.00261727 0.00223998 0.00261383 0.00261727 0.00288798 0.00261383 0.00292255 0.00223998 0.00261383 0.00220752 0.00258118 0.00261383 0.00292255 0.00258118 0.00295484 0.000496879 0.000606416 0.000499837 0.000605337 0.000606416 0.000193261 0.000605337 0.00019526 0.000499837 0.000605337 0.000509446 0.000603771 0.000605337 0.00019526 0.000603771 0.00020247 0.00391067 0.0043888 0.0039571 0.0044337 0.0043888 0.00511215 0.0044337 0.00504874 0.0039571 0.0044337 0.00417769 0.00457491 0.0044337 0.00504874 0.00457491 0.00490521 0.00241634 0.00307898 0.0024082 0.0030713 0.00307898 0.00323879 0.0030713 0.00323233 0.0024082 0.0030713 0.00240043 0.00306413 0.0030713 0.00323233 0.00306413 0.00323058 0.00192565 0.00174952 0.00186244 0.00171107 0.00174952 0.00126503 0.00171107 0.00136244 0.00186244 0.00171107 0.00183805 0.00164895 0.00171107 0.00136244 0.00164895 0.00145985 0.00171582 0.0017182 0.00158024 0.00186004 0.0017182 0.00172059 0.00186004 0.00181764 0.00158024 0.00186004 0.00161408 0.00181299 0.00186004 0.00181764 0.00181299 0.00201191 0.00172059 0.00149304 0.00181764 0.00168855 0.00149304 0.00126549 0.00168855 0.0015317 0.00181764 0.00168855 0.00201191 0.00190491 0.00168855 0.0015317 0.00190491 0.00179791 0.00192233 0.00186832 0.00181063 0.00165213 0.00186832 0.00181431 0.00165213 0.00153881 0.00181063 0.00165213 0.00169894 0.00148112 0.00165213 0.00153881 0.00148112 0.00126331 0.00244043 0.00309784 0.00241839 0.00308625 0.00309784 0.00329768 0.00308625 0.00327136 0.00241839 0.00308625 0.00241674 0.00307983 0.00308625 0.00327136 0.00307983 0.00325382 0.00183249 0.00164354 0.00183614 0.00171848 0.00164354 0.00145459 0.00171848 0.00135906 0.00183614 0.00171848 0.00193409 0.00174831 0.00171848 0.00135906 0.00174831 0.00126352 0.00241674 0.00307983 0.0024154 0.00308017 0.00307983 0.00325382 0.00308017 0.00324547 0.0024154 0.00308017 0.00241634 0.00307898 0.00308017 0.00324547 0.00307898 0.00323879 0.00295484 0.00279141 0.00293652 0.0027821 0.00279141 0.00261229 0.0027821 0.00259202 0.00293652 0.0027821 0.00291821 0.00274498 0.0027821 0.00259202 0.00274498 0.00257175 0.00257175 0.00248994 0.00254021 0.00245455 0.00248994 0.00240814 0.00245455 0.00240375 0.00254021 0.00245455 0.00250866 0.00244691 0.00245455 0.00240375 0.00244691 0.00238515 0.00270752 0.00260809 0.00252493 0.00251542 0.00260809 0.00250866 0.00251542 0.0024851 0.00252493 0.00251542 0.00233266 0.00239576 0.00251542 0.0024851 0.00239576 0.00246154 0.000509446 0.000603771 0.000527137 0.000604889 0.000603771 0.00020247 0.000604889 0.000219061 0.000527137 0.000604889 0.000552843 0.000612059 0.000604889 0.000219061 0.000612059 0.000237994 0.00233266 0.00239576 0.00207348 0.00223764 0.00239576 0.00246154 0.00223764 0.00238934 0.00207348 0.00223764 0.00181431 0.00204952 0.00223764 0.00238934 0.00204952 0.00228474 0.00246154 0.00240543 0.00238934 0.00234994 0.00240543 0.00234933 0.00234994 0.00230616 0.00238934 0.00234994 0.00228474 0.00227387 0.00234994 0.00230616 0.00227387 0.002263 0.00179791 0.0020415 0.00204967 0.00222665 0.0020415 0.0022851 0.00222665 0.00238709 0.00204967 0.00222665 0.00230143 0.00238128 0.00222665 0.00238709 0.00238128 0.00246113 0.00178485 0.00182955 0.0016311 0.00177741 0.00182955 0.00230746 0.00177741 0.00223998 0.0016311 0.00177741 0.00159415 0.00174055 0.00177741 0.00223998 0.00174055 0.00220752 0.00193409 0.00174831 0.00196652 0.00189583 0.00189583 0.00120502 0.00190796 0.00119724 0.00119724 0.00098658 0.00120479 0.000975171 0.00098658 0.000430305 0.000975171 0.000448033 0.00120479 0.000975171 0.00126503 0.000892166 0.000975171 0.000448033 0.000892166 0.000519306 0.0022851 0.00227203 0.00238709 0.0023459 0.00227203 0.00225897 0.0023459 0.00229898 0.00238709 0.0023459 0.00246113 0.00240006 0.0023459 0.00229898 0.00240006 0.00233898 0.000553746 0.000612223 0.000527374 0.000604887 0.000612223 0.000237958 0.000604887 0.000219078 0.000527374 0.000604887 0.000509442 0.000603767 0.000604887 0.000219078 0.000603767 0.000202481 0.00270182 0.00259606 0.00280586 0.00267446 0.00259606 0.00249029 0.00267446 0.00252395 0.00280586 0.00267446 0.00288798 0.00273742 0.00267446 0.00252395 0.00273742 0.00255761 0.00288798 0.00273742 0.00292255 0.00277628 0.00273742 0.00255761 0.00277628 0.00258495 0.00292255 0.00277628 0.00295484 0.00279141 0.00277628 0.00258495 0.00279141 0.00261229 0.00114099 0.00167767 0.00145592 0.00182185 0.00167767 0.0022069 0.00182185 0.00220225 0.00145592 0.00182185 0.00177085 0.00198422 0.00182185 0.00220225 0.00198422 0.00219759 0.00177178 0.00198483 0.00145631 0.00182171 0.00198483 0.00219788 0.00182171 0.00220199 0.00145631 0.00182171 0.00114083 0.00167728 0.00182171 0.00220199 0.00167728 0.00220611 0.00322088 0.00298564 0.00320804 0.00298249 0.00298564 0.00275039 0.00298249 0.00271772 0.00320804 0.00298249 0.00319519 0.00294012 0.00298249 0.00271772 0.00294012 0.00268505 0.00304979 0.00281971 0.00287086 0.00272118 0.00281971 0.00258963 0.00272118 0.00253723 0.00287086 0.00272118 0.00268814 0.00259654 0.00272118 0.00253723 0.00259654 0.00250494 0.00235433 0.00243285 0.00250444 0.00250583 0.00243285 0.00248139 0.00250583 0.0025024 0.00250444 0.00250583 0.00265455 0.0026064 0.00250583 0.0025024 0.0026064 0.00253592 0.00265455 0.0026064 0.00282242 0.00272363 0.0026064 0.00253592 0.00272363 0.00259857 0.00282242 0.00272363 0.00298866 0.00282985 0.00272363 0.00259857 0.00282985 0.00267103 0.00241563 0.00248154 0.0024268 0.00248555 0.00248154 0.00253671 0.00248555 0.00253489 0.0024268 0.00248555 0.00243798 0.00248821 0.00248555 0.00253489 0.00248821 0.00253112 0.00243798 0.00248821 0.00242091 0.00248098 0.00248821 0.00253112 0.00248098 0.00252379 0.00242091 0.00248098 0.00240385 0.00246425 0.00248098 0.00252379 0.00246425 0.00251571 0.00258963 0.00182663 0.00253723 0.00181902 0.00182663 0.00114592 0.00181902 0.000964502 0.00253723 0.00181902 0.00250494 0.00182743 0.00181902 0.000964502 0.00182743 0.000808305 0.00240385 0.00246425 0.00235566 0.00243559 0.00246425 0.00251571 0.00243559 0.00250504 0.00235566 0.00243559 0.00230746 0.00241197 0.00243559 0.00250504 0.00241197 0.0024937 0.00248139 0.00183531 0.0025024 0.00188765 0.00183531 0.000834189 0.00188765 0.00102808 0.0025024 0.00188765 0.00253592 0.0019772 0.00188765 0.00102808 0.0019772 0.0012552 0.000509442 0.000603767 0.000499824 0.000605339 0.000603767 0.000202481 0.000605339 0.000195257 0.000499824 0.000605339 0.000496879 0.000606416 0.000605339 0.000195257 0.000606416 0.000193261 0.00230746 0.00241197 0.0023309 0.0024068 0.00241197 0.0024937 0.0024068 0.00248505 0.0023309 0.0024068 0.00235433 0.00243285 0.0024068 0.00248505 0.00243285 0.00248139 0.00165035 0.00187984 0.00162543 0.00188032 0