# vtk DataFile Version 3.0
#This file was generated by the deal.II library on 2023/3/1 at 3:09:35
ASCII
DATASET UNSTRUCTURED_GRID

FIELD FieldData 2
CYCLE 1 1 int
32
TIME 1 1 double
0.064
POINTS 5020 double
2.12132 -1 -2.12132
2.77164 -1 -1.14805
1.85072 -0.92388 -1.85072
2.41809 -0.92388 -1.0016
1.85072 -0.92388 -1.85072
2.41809 -0.92388 -1.0016
1.62132 -0.707107 -1.62132
2.11836 -0.707107 -0.877452
-1.53073 0 3.69552
-2.82843 0 2.82843
-1.5016 -0.382683 3.62519
-2.7746 -0.382683 2.7746
2.40268e-16 -0.382683 3.92388
-1.5016 -0.382683 3.62519
2.26995e-16 -0.707107 3.70711
-1.41865 -0.707107 3.42492
-1.5016 -0.382683 3.62519
-2.7746 -0.382683 2.7746
-1.41865 -0.707107 3.42492
-2.62132 -0.707107 2.62132
-2.12132 -1 -2.12132
-1.14805 -1 -2.77164
-1.85072 -0.92388 -1.85072
-1.0016 -0.92388 -2.41809
2.62132 -0.707107 -2.62132
3.42492 -0.707107 -1.41865
2.39192 -0.92388 -2.39192
3.12519 -0.92388 -1.2945
1.2945 0.92388 3.12519
2.0713e-16 0.92388 3.38268
1.41865 0.707107 3.42492
2.26995e-16 0.707107 3.70711
-2.39192 -0.92388 -2.39192
-1.2945 -0.92388 -3.12519
-2.12132 -1 -2.12132
-1.14805 -1 -2.77164
1.62132 -0.707107 -1.62132
2.11836 -0.707107 -0.877452
1.46804 -0.382683 -1.46804
1.91809 -0.382683 -0.794497
-3.69552 0 1.53073
-4 0 0
-3.62519 -0.382683 1.5016
-3.92388 -0.382683 4.80537e-16
-1.85072 0.92388 -1.85072
-1.0016 0.92388 -2.41809
-2.12132 1 -2.12132
-1.14805 1 -2.77164
0.765367 1.22465e-16 1.84776
0 0 2
0.794497 0.382683 1.91809
1.27126e-16 0.382683 2.07612
0.794497 0.382683 1.91809
1.27126e-16 0.382683 2.07612
0.877452 0.707107 2.11836
1.40399e-16 0.707107 2.29289
1.85072 0.92388 1.85072
1.0016 0.92388 2.41809
2.12132 1 2.12132
1.14805 1 2.77164
0.877452 -0.707107 2.11836
1.40399e-16 -0.707107 2.29289
0.794497 -0.382683 1.91809
1.27126e-16 -0.382683 2.07612
0.794497 -0.382683 1.91809
1.27126e-16 -0.382683 2.07612
0.765367 1.22465e-16 1.84776
0 0 2
2.82843 0 2.82843
1.53073 0 3.69552
2.7746 -0.382683 2.7746
1.5016 -0.382683 3.62519
1.5016 -0.382683 3.62519
2.40268e-16 -0.382683 3.92388
1.41865 -0.707107 3.42492
2.26995e-16 -0.707107 3.70711
1.41865 0.707107 3.42492
2.26995e-16 0.707107 3.70711
1.5016 0.382683 3.62519
2.40268e-16 0.382683 3.92388
2.7746 0.382683 2.7746
1.5016 0.382683 3.62519
2.82843 0 2.82843
1.53073 0 3.69552
1.5016 0.382683 3.62519
2.40268e-16 0.382683 3.92388
1.53073 0 3.69552
0 0 4
-0.765367 1.22465e-16 -1.84776
0 0 -2
-0.794497 0.382683 -1.91809
-3.81377e-16 0.382683 -2.07612
-0.794497 0.382683 -1.91809
-3.81377e-16 0.382683 -2.07612
-0.877452 0.707107 -2.11836
-4.21198e-16 0.707107 -2.29289
-0.877452 -0.707107 -2.11836
-4.21198e-16 -0.707107 -2.29289
-0.794497 -0.382683 -1.91809
-3.81377e-16 -0.382683 -2.07612
-0.794497 -0.382683 -1.91809
-3.81377e-16 -0.382683 -2.07612
-0.765367 1.22465e-16 -1.84776
0 0 -2
0 0 2
-0.765367 1.22465e-16 1.84776
1.27126e-16 0.382683 2.07612
-0.794497 0.382683 1.91809
-0.765367 1.22465e-16 1.84776
-1.41421 1.22465e-16 1.41421
-0.794497 0.382683 1.91809
-1.46804 0.382683 1.46804
1.27126e-16 0.382683 2.07612
-0.794497 0.382683 1.91809
1.40399e-16 0.707107 2.29289
-0.877452 0.707107 2.11836
1.40399e-16 0.707107 2.29289
-0.877452 0.707107 2.11836
1.60264e-16 0.92388 2.61732
-1.0016 0.92388 2.41809
1.60264e-16 0.92388 2.61732
-1.0016 0.92388 2.41809
0 1 3
-1.14805 1 2.77164
1.60264e-16 -0.92388 2.61732
-1.0016 -0.92388 2.41809
1.40399e-16 -0.707107 2.29289
-0.877452 -0.707107 2.11836
1.40399e-16 -0.707107 2.29289
-0.877452 -0.707107 2.11836
1.27126e-16 -0.382683 2.07612
-0.794497 -0.382683 1.91809
1.27126e-16 -0.382683 2.07612
-0.794497 -0.382683 1.91809
0 0 2
-0.765367 1.22465e-16 1.84776
-0.794497 -0.382683 1.91809
-1.46804 -0.382683 1.46804
-0.765367 1.22465e-16 1.84776
-1.41421 1.22465e-16 1.41421
2.26995e-16 -0.707107 3.70711
-1.41865 -0.707107 3.42492
2.0713e-16 -0.92388 3.38268
-1.2945 -0.92388 3.12519
0 1 3
-1.14805 1 2.77164
2.0713e-16 0.92388 3.38268
-1.2945 0.92388 3.12519
2.0713e-16 0.92388 3.38268
-1.2945 0.92388 3.12519
2.26995e-16 0.707107 3.70711
-1.41865 0.707107 3.42492
-2.62132 0.707107 -2.62132
-1.41865 0.707107 -3.42492
-2.7746 0.382683 -2.7746
-1.5016 0.382683 -3.62519
-1.41865 0.707107 -3.42492
-6.80984e-16 0.707107 -3.70711
-1.5016 0.382683 -3.62519
-7.20805e-16 0.382683 -3.92388
-1.5016 0.382683 -3.62519
-7.20805e-16 0.382683 -3.92388
-1.53073 0 -3.69552
0 0 -4
0 0 -2
0.765367 1.22465e-16 -1.84776
-3.81377e-16 0.382683 -2.07612
0.794497 0.382683 -1.91809
0.765367 1.22465e-16 -1.84776
1.41421 1.22465e-16 -1.41421
0.794497 0.382683 -1.91809
1.46804 0.382683 -1.46804
-3.81377e-16 0.382683 -2.07612
0.794497 0.382683 -1.91809
-4.21198e-16 0.707107 -2.29289
0.877452 0.707107 -2.11836
-4.21198e-16 0.707107 -2.29289
0.877452 0.707107 -2.11836
-4.80793e-16 0.92388 -2.61732
1.0016 0.92388 -2.41809
-4.80793e-16 -0.92388 -2.61732
1.0016 -0.92388 -2.41809
-4.21198e-16 -0.707107 -2.29289
0.877452 -0.707107 -2.11836
-4.21198e-16 -0.707107 -2.29289
0.877452 -0.707107 -2.11836
-3.81377e-16 -0.382683 -2.07612
0.794497 -0.382683 -1.91809
-3.81377e-16 -0.382683 -2.07612
0.794497 -0.382683 -1.91809
0 0 -2
0.765367 1.22465e-16 -1.84776
0.794497 -0.382683 -1.91809
1.46804 -0.382683 -1.46804
0.765367 1.22465e-16 -1.84776
1.41421 1.22465e-16 -1.41421
2.26995e-16 0.707107 3.70711
-1.41865 0.707107 3.42492
2.40268e-16 0.382683 3.92388
-1.5016 0.382683 3.62519
-1.41865 0.707107 3.42492
-2.62132 0.707107 2.62132
-1.5016 0.382683 3.62519
-2.7746 0.382683 2.7746
-1.5016 0.382683 3.62519
-2.7746 0.382683 2.7746
-1.53073 0 3.69552
-2.82843 0 2.82843
1.41865 0.707107 -3.42492
2.62132 0.707107 -2.62132
1.5016 0.382683 -3.62519
2.7746 0.382683 -2.7746
1.5016 0.382683 -3.62519
2.7746 0.382683 -2.7746
1.53073 0 -3.69552
2.82843 0 -2.82843
-2.39192 0.92388 2.39192
-3.12519 0.92388 1.2945
-2.62132 0.707107 2.62132
-3.42492 0.707107 1.41865
2.82843 0 -2.82843
3.69552 0 -1.53073
2.7746 -0.382683 -2.7746
3.62519 -0.382683 -1.5016
3.69552 0 -1.53073
4 0 0
3.62519 -0.382683 -1.5016
3.92388 -0.382683 0
2.7746 -0.382683 -2.7746
3.62519 -0.382683 -1.5016
2.62132 -0.707107 -2.62132
3.42492 -0.707107 -1.41865
3.62519 -0.382683 -1.5016
3.92388 -0.382683 0
3.42492 -0.707107 -1.41865
3.70711 -0.707107 0
2.29289 0.707107 0
2.24884 0.707107 0.447321
2.44443 0.83147 0
2.39746 0.83147 0.476885
2.44443 0.83147 0
2.39746 0.83147 0.476885
2.61732 0.92388 0
2.56703 0.92388 0.510613
2.61732 0.92388 0
2.56703 0.92388 0.510613
2.80491 0.980785 0
2.75101 0.980785 0.547211
2.80491 0.980785 0
2.75101 0.980785 0.547211
3 1 0
2.94236 1 0.585271
2.11836 0.707107 0.877452
1.90647 0.707107 1.27386
2.25836 0.83147 0.935443
2.03247 0.83147 1.35805
1.90647 0.707107 1.27386
1.62132 0.707107 1.62132
2.03247 0.83147 1.35805
1.72847 0.83147 1.72847
2.25836 0.83147 0.935443
2.03247 0.83147 1.35805
2.41809 0.92388 1.0016
2.17622 0.92388 1.4541
2.03247 0.83147 1.35805
1.72847 0.83147 1.72847
2.17622 0.92388 1.4541
1.85072 0.92388 1.85072
2 0 0
1.96157 1.22465e-16 0.390181
2.01921 0.19509 0
1.98042 0.19509 0.393929
1.96157 1.22465e-16 0.390181
1.84776 1.22465e-16 0.765367
1.98042 0.19509 0.393929
1.86551 0.19509 0.77272
2.01921 0.19509 0
1.98042 0.19509 0.393929
2.07612 0.382683 0
2.03623 0.382683 0.405031
1.98042 0.19509 0.393929
1.86551 0.19509 0.77272
2.03623 0.382683 0.405031
1.91809 0.382683 0.794497
2.61732 -0.92388 0
2.56703 -0.92388 0.510613
2.44443 -0.83147 0
2.39746 -0.83147 0.476885
2.44443 -0.83147 0
2.39746 -0.83147 0.476885
2.29289 -0.707107 0
2.24884 -0.707107 0.447321
-1.41421 1.22465e-16 1.41421
-1.66294 1.22465e-16 1.11114
-1.4278 0.19509 1.4278
-1.67892 0.19509 1.12182
-1.66294 1.22465e-16 1.11114
-1.84776 1.22465e-16 0.765367
-1.67892 0.19509 1.12182
-1.86551 0.19509 0.77272
-1.4278 0.19509 1.4278
-1.67892 0.19509 1.12182
-1.46804 0.382683 1.46804
-1.72623 0.382683 1.15343
-1.67892 0.19509 1.12182
-1.86551 0.19509 0.77272
-1.72623 0.382683 1.15343
-1.91809 0.382683 0.794497
-1.46804 0.382683 1.46804
-1.72623 0.382683 1.15343
-1.53338 0.55557 1.53338
-1.80307 0.55557 1.20477
-1.72623 0.382683 1.15343
-1.91809 0.382683 0.794497
-1.80307 0.55557 1.20477
-2.00346 0.55557 0.829861
-1.53338 0.55557 1.53338
-1.80307 0.55557 1.20477
-1.62132 0.707107 1.62132
-1.90647 0.707107 1.27386
-1.80307 0.55557 1.20477
-2.00346 0.55557 0.829861
-1.90647 0.707107 1.27386
-2.11836 0.707107 0.877452
-1.91809 0.382683 0.794497
-2.03623 0.382683 0.405031
-2.00346 0.55557 0.829861
-2.12686 0.55557 0.423059
-2.03623 0.382683 0.405031
-2.07612 0.382683 2.54251e-16
-2.12686 0.55557 0.423059
-2.16853 0.55557 2.65568e-16
-2.00346 0.55557 0.829861
-2.12686 0.55557 0.423059
-2.11836 0.707107 0.877452
-2.24884 0.707107 0.447321
-2.12686 0.55557 0.423059
-2.16853 0.55557 2.65568e-16
-2.24884 0.707107 0.447321
-2.29289 0.707107 2.80798e-16
-1.62132 0.707107 1.62132
-1.90647 0.707107 1.27386
-1.72847 0.83147 1.72847
-2.03247 0.83147 1.35805
-1.72847 0.83147 1.72847
-2.03247 0.83147 1.35805
-1.85072 0.92388 1.85072
-2.17622 0.92388 1.4541
-2.03247 0.83147 1.35805
-2.25836 0.83147 0.935443
-2.17622 0.92388 1.4541
-2.41809 0.92388 1.0016
-2.11836 0.707107 0.877452
-2.24884 0.707107 0.447321
-2.25836 0.83147 0.935443
-2.39746 0.83147 0.476885
-2.24884 0.707107 0.447321
-2.29289 0.707107 2.80798e-16
-2.39746 0.83147 0.476885
-2.44443 0.83147 2.99356e-16
-2.25836 0.83147 0.935443
-2.39746 0.83147 0.476885
-2.41809 0.92388 1.0016
-2.56703 0.92388 0.510613
-2.39746 0.83147 0.476885
-2.44443 0.83147 2.99356e-16
-2.56703 0.92388 0.510613
-2.61732 0.92388 3.20529e-16
-1.85072 0.92388 1.85072
-2.17622 0.92388 1.4541
-1.98337 0.980785 1.98337
-2.3322 0.980785 1.55832
-2.17622 0.92388 1.4541
-2.41809 0.92388 1.0016
-2.3322 0.980785 1.55832
-2.5914 0.980785 1.07339
-1.98337 0.980785 1.98337
-2.3322 0.980785 1.55832
-2.12132 1 2.12132
-2.49441 1 1.66671
-2.3322 0.980785 1.55832
-2.5914 0.980785 1.07339
-2.49441 1 1.66671
-2.77164 1 1.14805
-2.41809 0.92388 1.0016
-2.56703 0.92388 0.510613
-2.5914 0.980785 1.07339
-2.75101 0.980785 0.547211
-2.56703 0.92388 0.510613
-2.61732 0.92388 3.20529e-16
-2.75101 0.980785 0.547211
[...]
POINT_DATA 5020
SCALARS U double 1
LOOKUP_TABLE default
0.00112648 0.000637999 0.00115137 0.000759492 0.00115137 0.000759492 0.00110823 0.000854756 0.000887822 0.000869721 0.000868936 0.000906645 0.00100729 0.000868936 0.00139111 0.000784643 0.000868936 0.000906645 0.000784643 0.000920008 0.00381263 0.000237825 0.00331488 0.000776718 0.00132396 0.000786452 0.0011644 0.000718595 0.000688381 0.00202342 0.0011336 0.00150364 0.00316237 0.000190924 0.00381263 0.000237825 0.00110823 0.000854756 0.0007007 0.000643914 -8.25408e-05 0.000272194 -0.000169892 7.32767e-05 0.00306689 0.000855931 0.00329897 0.00030324 0.0019985 0.00191069 0.00200543 0.00193236 0.00200543 0.00193236 0.0017783 0.00198934 0.00314881 0.000790145 0.00320748 0.000324142 0.00173977 0.00199117 0.0019667 0.00192721 0.0019667 0.00192721 0.0019985 0.00191069 0.00367261 0.00116135 0.00297312 0.00130924 0.00130924 0.00100729 0.00137841 0.00139111 0.0011336 0.00150364 0.00111875 0.00105952 0.00326006 0.00111875 0.00367261 0.00116135 0.00111875 0.00105952 0.00116135 0.000895118 0.00196493 0.00192458 0.00197735 0.00193979 0.00197735 0.00193979 0.0017992 0.00199851 0.00182819 0.00198187 0.00198985 0.00193589 0.00198985 0.00193589 0.00196493 0.00192458 0.00191069 0.00170661 0.00193236 0.00187261 0.00170661 0.000359539 0.00187261 0.00070276 0.00193236 0.00187261 0.00198934 0.0018734 0.00198934 0.0018734 0.00203346 0.00122825 0.00203346 0.00122825 0.00209291 0.00056457 0.00202655 0.00123314 0.00199117 0.00187044 0.00199117 0.00187044 0.00192721 0.00186942 0.00192721 0.00186942 0.00191069 0.00170661 0.00186942 0.000703554 0.00170661 0.000359539 0.00139111 0.000784643 0.00196325 0.000564245 0.00209291 0.00056457 0.00202342 0.000501817 0.00202342 0.000501817 0.00150364 0.000771192 0.00220416 0.000294635 0.00164025 0.000499121 0.000294635 0.00138638 0.000499121 0.00116815 0.000499121 0.00116815 0.000648757 0.00132979 0.00192458 0.00171406 0.00193979 0.00187707 0.00171406 0.000354672 0.00187707 0.000696548 0.00193979 0.00187707 0.00199851 0.00187107 0.00199851 0.00187107 0.00199199 0.001231 0.00200004 0.00122676 0.00198187 0.00186529 0.00198187 0.00186529 0.00193589 0.00187268 0.00193589 0.00187268 0.00192458 0.00171406 0.00187268 0.0007007 0.00171406 0.000354672 0.00150364 0.000771192 0.00105952 0.000908124 0.000771192 0.00109532 0.000908124 0.000862961 0.000908124 0.000862961 0.000887822 0.000869721 0.000782225 0.000983132 0.000959187 0.000931852 0.000959187 0.000931852 0.00071605 0.00118131 0.00124829 0.000794974 0.00109532 0.000436503 0.00118131 0.00045594 0.00132014 0.000535036 0.00045594 0.000101265 0.000535036 -0.000249486 0.00132014 0.000535036 0.00132396 0.000786452 0.000535036 -0.000249486 0.000786452 4.38996e-05 0.00225909 0.00301363 0.00191173 0.00260409 0.00191173 0.00260409 0.00156271 0.0023863 0.00156271 0.0023863 0.00128421 0.00235707 0.00128421 0.00235707 0.00091666 0.00248003 0.00399851 0.00365128 0.00410277 0.00371377 0.00365128 0.00303733 0.00371377 0.00286738 0.00410277 0.00371377 0.00411569 0.00358136 0.00371377 0.00286738 0.00358136 0.00314881 0.00306168 0.00374829 0.00297223 0.00369398 0.00374829 0.00368491 0.00369398 0.00371485 0.00297223 0.00369398 0.00277857 0.00362444 0.00369398 0.00371485 0.00362444 0.00378968 0.0012166 0.00248078 0.0018619 0.00260475 0.0018619 0.00260475 0.00235616 0.00271584 0.000359539 0.000327405 0.00053115 0.000379026 0.000327405 0.000290678 0.000379026 0.000396341 0.00053115 0.000379026 0.00070276 0.000513682 0.000379026 0.000396341 0.000513682 0.000656669 0.00070276 0.000513682 0.000926017 0.000632581 0.000513682 0.000656669 0.000632581 0.000825197 0.000926017 0.000632581 0.00109756 0.000696544 0.000632581 0.000825197 0.000696544 0.000846682 0.000656669 0.0015025 0.000825197 0.00194581 0.0015025 0.00262819 0.00194581 0.00240717 0.000825197 0.00194581 0.000846682 0.00216191 0.00194581 0.00240717 0.00216191 0.00215916 0.00109756 0.000696544 0.00113416 0.00073635 0.00113416 0.00073635 0.0011527 0.000874763 0.00073635 0.000835936 0.000874763 0.000982017 0.000846682 0.00216191 0.000835936 0.00218102 0.00216191 0.00215916 0.00218102 0.00181576 0.000835936 0.00218102 0.000982017 0.00219266 0.00218102 0.00181576 0.00219266 0.00131323 0.0011527 0.000874763 0.00120611 0.00114389 0.000874763 0.000982017 0.00114389 0.00127924 0.00120611 0.00114389 0.00125153 0.00133948 0.00114389 0.00127924 0.00133948 0.00142598 0.000982017 0.00219266 0.00127924 0.00195143 0.00219266 0.00131323 0.00195143 0.000838375 0.00127924 0.00195143 0.00142598 0.00132593 0.00195143 0.000838375 0.00132593 0.000435234 0.00277857 0.00362444 0.00255787 0.00340295 0.00255787 0.00340295 0.00225909 0.00301363 0.00137841 0.00138476 0.00107034 0.00122715 0.00138476 0.00139111 0.00122715 0.00167718 0.00107034 0.00122715 0.000871936 0.00105487 0.00122715 0.00167718 0.00105487 0.00196325 0.00112929 0.000725128 0.0011314 0.000727593 0.000725128 0.000396365 0.000727593 0.000657349 0.0011314 0.000727593 0.00110151 0.000728504 0.000727593 0.000657349 0.000728504 0.000879207 0.000396365 0.00105093 0.000657349 0.00179135 0.00105093 0.00101783 0.00179135 0.0015992 0.000657349 0.00179135 0.000879207 0.00222292 0.00179135 0.0015992 0.00222292 0.00214237 0.00235616 0.00271584 0.00256629 0.0027863 0.00256629 0.0027863 0.00280124 0.00320576 0.00411569 0.00358136 0.00362718 0.00333825 0.00358136 0.00314881 0.00333825 0.00317814 0.00362718 0.00333825 0.00284085 0.0029869 0.00333825 0.00317814 0.0029869 0.00320748 0.000396341 0.00122186 0.000656669 0.0015025 0.00122186 0.00286525 0.0015025 0.00262819 0.00333382 0.00315694 0.0035691 0.00321766 0.00315694 0.00268514 0.00321766 0.00256706 0.0035691 0.00321766 0.00361889 0.00320183 0.00321766 0.00256706 0.00320183 0.00248475 0.00361889 0.00320183 0.00374764 0.0032682 0.00320183 0.00248475 0.0032682 0.00248803 0.00374764 0.0032682 0.00385115 0.00334818 0.0032682 0.00248803 0.00334818 0.00254235 0.00368491 0.0034336 0.00371485 0.00346302 0.0034336 0.00302795 0.00346302 0.00304738 0.00371485 0.00346302 0.00378968 0.00350602 0.00346302 0.00304738 0.00350602 0.00305387 0.00378968 0.00350602 0.00386704 0.00359068 0.00350602 0.00305387 0.00359068 0.00303443 0.00386704 0.00359068 0.00399851 0.00365128 0.00359068 0.00303443 0.00365128 0.00303733 0.00206887 0.00144045 0.00205706 0.00146469 0.00144045 0.000635394 0.00146469 0.00090164 0.00205706 0.00146469 0.00202655 0.00162984 0.00146469 0.00090164 0.00162984 0.00123314 0.00215916 0.00287602 0.00181576 0.00243399 0.00181576 0.00243399 0.00131323 0.00239349 0.00113382 0.000744923 0.00113237 0.000734644 0.000744923 0.000393659 0.000734644 0.000342214 0.00113237 0.000734644 0.00112929 0.000725128 0.000734644 0.000342214 0.000725128 0.000396365 0.00110151 0.000728504 0.000927991 0.000643071 0.000728504 0.000879207 0.000643071 0.000865216 0.000927991 0.000643071 0.000703554 0.000520667 0.000643071 0.000865216 0.000520667 0.000684318 0.000237825 0.000863047 0.000507271 0.00121434 0.000507271 0.00121434 0.000776718 0.00160382 0.00121434 0.00199414 0.00160382 0.00200004 0.00385115 0.00334818 0.00382138 0.00341177 0.00334818 0.00254235 0.00341177 0.00269827 0.00382138 0.00341177 0.00376953 0.00345463 0.00341177 0.00269827 0.00345463 0.00286731 0.00280124 0.00320576 0.00300713 0.00365566 0.00365566 0.00374486 0.00374829 0.00368491 0.00264071 0.00329897 0.00231538 0.002599 0.00376953 0.00345463 0.00374486 0.00343971 0.00345463 0.00286731 0.00343971 0.00296384 0.00374486 0.00343971 0.00368491 0.0034336 0.00343971 0.00296384 0.0034336 0.00302795 0.0029869 0.00320748 0.00274823 0.0029568 0.00274823 0.0029568 0.00236711 0.00311606 0.000879207 0.00222292 0.000865216 0.00206951 0.00222292 0.00214237 0.00206951 0.00250007 0.000865216 0.00206951 0.000684318 0.00161442 0.00206951 0.00250007 0.00161442 0.00274977 0.00392404 0.00356502 0.00390259 0.00358949 0.00356502 0.00303459 0.00358949 0.0030299 0.00390259 0.00358949 0.00391102 0.0035889 0.00358949 0.0030299 0.0035889 0.00301959 0.00391102 0.0035889 0.00387796 0.00356447 0.0035889 0.00301959 0.00356447 0.00297469 0.00387796 0.00356447 0.00383998 0.00352721 0.00356447 0.00297469 0.00352721 0.00295225 0.00196325 0.00126375 0.00205228 0.00139466 0.00126375 0.000564245 0.00139466 0.000561421 0.00205228 0.00139466 0.00206887 0.00144045 0.00139466 0.000561421 0.00144045 0.000635394 0.0029984 0.00382263 0.00286525 0.00370516 0.00286525 0.00370516 0.00262819 0.00357925 0.000703554 0.000520667 0.000531547 0.000388153 0.000520667 0.000684318 0.000388153 0.000415631 0.000531547 0.000388153 0.000359539 0.000327405 0.000388153 0.000415631 0.000327405 0.000290678 0.000920008 0.000509695 0.00100992 0.00064016 0.000509695 0.000239517 0.00064016 0.000569793 0.00100992 0.00064016 0.00109485 0.000740957 0.00064016 0.000569793 0.000740957 0.000704963 0.00262819 0.00357925 0.00240717 0.00334468 0.00240717 0.00334468 0.00215916 0.00287602 0.00214237 0.00304267 0.00250007 0.00330471 0.00250007 0.00330471 0.00274977 0.0036282 0.000537073 0.000309769 0.000653527 0.000292132 0.000309769 0.00210118 0.000292132 0.0020672 0.000653527 0.000292132 0.000190924 0.000471577 0.000292132 0.0020672 0.000471577 0.00198723 0.000239517 0.000414756 0.000569793 0.00102839 0.000414756 0.000358583 0.00102839 0.000309765 0.000569793 0.00102839 0.000704963 0.00161443 0.00102839 0.000309765 0.00161443 0.000421158 0.000190924 0.000471577 0.000214375 0.000610656 0.000471577 0.00198723 0.000610656 0.00196369 0.000214375 0.000610656 0.000237825 0.000863047 0.000610656 0.00196369 0.000863047 0.00198747 0.00366497 0.00340638 0.00378187 0.0034902 0.00340638 0.00290362 0.0034902 0.0029226 0.00378187 0.0034902 0.00379754 0.00348293 0.0034902 0.0029226 0.00348293 0.00300369 0.00379754 0.00348293 0.00385934 0.00352497 0.00348293 0.00300369 0.00352497 0.00302499 0.00385934 0.00352497 0.00392404 0.00356502 0.00352497 0.00302499 0.00356502 0.00303459 0.00109485 0.000740957 0.00112446 0.000761959 0.000740957 0.000704963 0.000761959 0.000573734 0.00112446 0.000761959 0.00113382 0.000744923 0.000761959 0.000573734 0.000744923 0.000393659 0.00236711 0.00311606 0.0021674 0.00309669 0.0021674 0.00309669 0.0021113 0.00312019 0.000471064 0.00178882 0.000921743 0.00203369 0.000921743 0.00203369 0.000903034 0.00220399 0.000704963 0.00161443 0.000573734 0.0016095 0.00161443 0.000421158 0.0016095 0.000678966 0.000573734 0.0016095 0.000393659 0.000995912 0.0016095 0.000678966 0.000995912 0.000995779 0.00109785 0.000708481 0.0011384 0.000741077 0.0011384 0.000741077 0.00114603 0.000749834 0.000741077 0.000832239 0.000749834 0.000781438 0.000877178 0.00222764 0.000832239 0.00218905 0.00222764 0.00225909 0.00218905 0.00191173 0.000832239 0.00218905 0.000781438 0.00214794 0.00218905 0.00191173 0.00214794 0.00156271 0.00114603 0.000749834 0.00114037 0.000782 0.00114037 0.000782 0.00114333 0.000770521 0.000781438 0.00214794 0.00076087 0.00213446 0.00214794 0.00156271 0.00213446 0.00128421 0.00076087 0.00213446 0.000705342 0.0021308 0.00213446 0.00128421 0.0021308 0.00091666 0.00383998 0.00352721 0.0038684 0.00354548 0.00352721 0.00295225 0.00354548 0.00277256 0.0038684 0.00354548 0.00378498 0.00336423 0.00354548 0.00277256 0.00336423 0.00306689 0.000804957 0.000877163 0.000968729 0.00112139 0.000968729 0.00112139 0.00119687 0.00150072 0.00112139 0.00205706 0.00150072 0.00202655 0.00274977 0.0036282 0.00295199 0.00379071 0.0036282 0.00379754 0.00379071 0.00385934 0.00295199 0.00379071 0.0029984 0.00382263 0.00379071 0.00385934 0.00382263 0.00392404 0.000637999 0.0020664 0.000698746 0.00206192 0.0020664 0.000903034 0.00206192 0.000873582 0.000698746 0.00206192 0.000759492 0.00206248 0.00206192 0.000873582 0.00206248 0.0012166 0.00378498 0.00336423 0.00299063 0.00299789 0.00336423 0.00306689 0.00299789 0.00318293 0.00299063 0.00299789 0.00205303 0.00264071 0.00299789 0.00318293 0.00264071 0.00329897 0.000759492 0.00206248 0.000807124 0.00210252 0.00206248 0.0012166 0.00210252 0.0018619 0.000807124 0.00210252 0.000854756 0.00212883 0.00210252 0.0018619 0.00212883 0.00235616 0.0021113 0.00312019 0.0021054 0.00307526 0.0021054 0.00307526 0.00206877 0.00326006 0.00234847 0.00381263 0.00234471 0.00356376 0.00129116 0.00234471 0.00193751 0.00259387 0.00234471 0.00356376 0.00259387 0.00331488 0.00206877 0.00326006 0.00206829 0.00346634 0.00206829 0.00346634 0.00189513 0.00367261 0.00030324 0.000869331 0.00065735 0.000523483 0.000869331 0.00201527 0.000523483 0.00198728 0.00065735 0.000523483 0.000505062 0.000495251 0.000523483 0.00198728 0.000495251 0.00185427 0.000684318 0.00161442 0.000415631 0.0012909 0.00161442 0.00274977 0.0012909 0.00295199 0.000505062 0.000495251 0.000662998 0.000635193 0.000495251 0.00185427 0.000635193 0.00157992 0.000662998 0.000635193 0.000294635 0.000840506 0.000635193 0.00157992 0.000840506 0.00138638 0.00220548 0.00316237 0.00239523 0.0034875 0.00239523 0.0034875 0.00234847 0.00381263 0.000995779 0.00125763 0.000969355 0.00118066 0.00125763 0.00109741 0.00118066 0.00129116 0.000969355 0.00118066 0.00101783 0.00165383 0.00118066 0.00129116 0.00165383 0.00193751 0.00193751 0.00259387 0.00282215 0.00305776 0.00259387 0.00331488 0.00305776 0.00295698 0.00282215 0.00305776 0.00366497 0.00340638 0.00305776 0.00295698 0.00340638 0.00290362 0.000855931 0.00164529 0.000579586 0.00123739 0.00164529 0.00199199 0.00123739 0.00201217 0.000579586 0.00123739 0.00030324 0.000869331 0.000386868 0.00171418 0.000760278 0.00204474 0.00171418 0.00278455 0.00204474 0.00303352 0.000760278 0.00204474 0.00121973 0.00220548 0.00204474 0.00303352 0.00220548 0.00316237 0.000895118 0.000800676 0.000784619 0.000864471 0.000800676 0.000887822 0.000864471 0.000878379 0.000784619 0.000864471 0.00100729 0.000938112 0.000864471 0.000878379 0.000938112 0.000868936 0.00331488 0.0020458 0.00295698 0.00116012 0.0020458 0.000776718 0.00116012 0.00161131 0.00295698 0.00116012 0.00290362 0.00141706 0.00116012 0.00161131 0.00141706 0.00182819 0.000450304 0.00133086 0.000705235 0.00162876 0.00133086 0.00297223 0.00162876 0.00277857 0.000776718 0.00160382 0.00161131 0.00170312 0.00160382 0.00200004 0.00170312 0.00199096 0.00161131 0.00170312 0.00182819 0.00190503 0.00170312 0.00199096 0.00190503 0.00198187 0.000643914 0.00160283 0.000413141 0.00133329 0.00160283 0.00280124 0.00133329 0.00300713 0.000786452 0.000415176 0.000752523 0.0009941 0.000415176 4.38996e-05 0.0009941 7.82186e-05 0.000752523 0.0009941 0.000718595 0.00155006 0.0009941 7.82186e-05 0.00155006 0.000471064 0.000435234 0.00142276 0.000153551 0.00067929 0.00142276 0.00205303 0.00067929 0.00131872 0.000153551 0.00067929 -6.55165e-05 0.000262982 0.00067929 0.00131872 0.000262982 0.00045081 0.00199199 0.0016115 0.00201217 0.00146509 0.0016115 0.001231 0.00146509 0.000892366 0.00201217 0.00146509 0.00201527 0.00144837 0.00146509 0.000892366 0.00144837 0.000627297 0.0011644 0.0009415 0.0011566 0.000773353 0.0009415 0.000718595 0.000773353 0.000650455 0.0011566 0.000773353 0.00112648 0.000882241 0.000773353 0.000650455 0.000882241 0.000637999 0.00198747 0.00143279 0.00199414 0.00145458 0.00143279 0.000626342 0.00145458 0.000893215 0.00199414 0.00145458 0.00200004 0.0016134 0.00145458 0.000893215 0.0016134 0.00122676 0.000718595 0.00155006 0.000650455 0.00193176 0.00155006 0.000471064 0.00193176 0.000921743 0.000650455 0.00193176 0.000637999 0.0020664 0.00193176 0.000921743 0.0020664 0.000903034 0.00235985 0.00301184 0.0024443 0.00298622 0.0024443 0.00298622 0.00233663 0.00299265 -6.55165e-05 0.000262982 2.38427e-06 0.000248191 0.000262982 0.00045081 0.000248191 0.000288491 2.38427e-06 0.000248191 7.41569e-05 0.000459837 0.000248191 0.000288491 0.000459837 0.00034585 0.000906645 0.000481996 0.000913327 0.000422545 0.000481996 -0.000169892 0.000422545 -3.58485e-05 0.000913327 0.000422545 0.000920008 0.000509695 0.000422545 -3.58485e-05 0.000509695 0.000239517 -0.000169892 -4.83075e-05 -3.58485e-05 5.73079e-05 -4.83075e-05 7.32767e-05 5.73079e-05 0.000238718 5.73079e-05 0.000238718 0.000414756 0.000358583 0.000871936 0.00105487 0.000796053 0.000878959 0.000796053 0.000878959 0.000804957 0.000877163 0.000878959 0.00205228 0.000877163 0.00206887 0.00045081 0.00158166 0.000288491 0.00147606 0.00158166 0.00260078 0.00147606 0.00236805 0.000288491 0.00147606 0.00034585 0.001146 0.00147606 0.00236805 0.001146 0.00220416 0.00320748 0.00176581 0.0029568 0.000768519 0.00176581 0.000324142 0.000768519 0.000788767 0.0029568 0.000768519 0.00311606 0.00100414 0.000768519 0.000788767 0.00100414 0.000688381 0.000324142 0.00148322 0.000788767 0.00132662 0.00148322 0.00209291 0.00132662 0.00205816 0.000788767 0.00132662 0.000688381 0.0013559 0.00132662 0.00205816 0.0013559 0.00202342 0.00311606 0.00100414 0.00309669 0.0010489 0.00100414 0.000688381 0.0010489 0.000910989 0.00309669 0.0010489 0.00312019 0.00116106 0.0010489 0.000910989 0.00116106 0.0011336 0.000272194 0.00033926 0.000172735 9.91285e-05 0.00033926 -7.91973e-05 9.91285e-05 -0.000179317 0.000172735 9.91285e-05 7.32767e-05 4.17979e-05 9.91285e-05 -0.000179317 4.17979e-05 -0.000170524 -3.76725e-06 0.00189513 -8.90593e-05 0.00200991 0.00189513 0.00367261 0.00200991 0.00332287 0.00200991 0.00332287 0.00228551 0.00297312 -7.91973e-05 0.000885223 -0.000179317 0.00110516 0.000885223 0.00156414 0.00110516 0.00227092 -0.000179317 0.00110516 -0.000170524 0.00122842 0.00110516 0.00227092 0.00122842 0.00234131 0.00228551 0.00297312 0.00235072 0.00285903 0.00235072 0.00285903 0.00235985 0.00301184 7.32767e-05 4.17979e-05 0.000238718 0.000159067 4.17979e-05 -0.000170524 0.000159067 0.000209895 0.000238718 0.000159067 0.000358583 0.000598277 0.000159067 0.000209895 0.000598277 0.000386868 0.000648757 0.000989276 0.000596791 0.000591766 0.000989276 0.00132979 0.000591766 0.00170485 0.000596791 0.000591766 0.000547301 0.000407492 0.00278455 0.000910837 0.00303352 0.000699017 0.000910837 0.000537073 0.000699017 0.000653527 0.00303352 0.000699017 0.00316237 0.00167665 0.000699017 0.000653527 0.00167665 0.000190924 0.000547301 0.000407492 0.000525624 0.000330769 0.000407492 0.00195897 0.000330769 0.00209481 0.000525624 0.000330769 0.000537073 0.000309769 0.000330769 0.00209481 0.000309769 0.00210118 0.00132979 0.00108871 0.00170485 0.00121183 0.00108871 0.00071605 0.00121183 0.000563093 0.00121183 0.000563093 0.00136469 0.000434715 0.00136469 0.000434715 0.00144122 0.000397994 0.00144122 0.000397994 0.00145211 0.000398146 0.00145211 0.000398146 0.00143979 0.000429748 0.00143979 0.000429748 0.00143014 0.000476494 0.00143014 0.000476494 0.0014204 0.000532409 0.0014204 0.000532409 0.00143279 0.000626342 0.00144837 0.000627297 0.00141284 0.000550936 0.00141284 0.000550936 0.00134478 0.000543637 0.00185427 0.00134478 0.00157992 0.00119079 0.00134478 0.000543637 0.00119079 0.000644509 0.00157992 0.00119079 0.00138638 0.00103794 0.00119079 0.000644509 0.00103794 0.000782225 0.00114333 0.000770521 0.00114026 0.000766363 0.000770521 0.000705342 0.000766363 0.000698064 0.00114026 0.000766363 0.00112222 0.000753134 0.000766363 0.000698064 0.000753134 0.000672096 0.000705342 0.0021308 0.000698064 0.00197272 0.000698064 0.00197272 0.000672096 0.00158343 0.00112222 0.000753134 0.00106002 0.000756128 0.000753134 0.000672096 0.000756128 0.000468517 0.00106002 0.000756128 0.000983132 0.000763068 0.000756128 0.000468517 0.000763068 7.31139e-05 0.000672096 0.00158343 0.000468517 0.00116857 0.00158343 0.000285517 0.00116857 0.000129376 0.000468517 0.00116857 7.31139e-05 0.000985803 0.00116857 0.000129376 0.000985803 8.25899e-05 0.00268514 0.000759986 0.00256706 0.000780592 0.000759986 0.000804957 0.000780592 0.000968729 0.00256706 0.000780592 0.00248475 0.000849402 0.000780592 0.000968729 0.000849402 0.00119687 0.00125153 0.00133948 0.0012605 0.00125935 0.0012605 0.00125935 0.00124829 0.00102163 0.00125935 0.00117599 0.00102163 0.000794974 0.000354672 0.000332824 0.00052561 0.000392684 0.000332824 0.000325832 0.000392684 0.000450304 0.00052561 0.000392684 0.000696548 0.000523874 0.000392684 0.000450304 0.000523874 0.000705235 0.000696548 0.000523874 0.000922657 0.000636249 0.000523874 0.000705235 0.00063