# vtk DataFile Version 3.0
#This file was generated by the deal.II library on 2023/3/1 at 4:17:07
ASCII
DATASET UNSTRUCTURED_GRID

FIELD FieldData 2
CYCLE 1 1 int
69
TIME 1 1 double
0.138
POINTS 8848 double
-1.85072 0.92388 -1.85072
-1.0016 0.92388 -2.41809
-2.12132 1 -2.12132
-1.14805 1 -2.77164
-2.12132 -1 -2.12132
-1.14805 -1 -2.77164
-1.85072 -0.92388 -1.85072
-1.0016 -0.92388 -2.41809
-3.69552 0 -1.53073
-2.82843 0 -2.82843
-3.62519 -0.382683 -1.5016
-2.7746 -0.382683 -2.7746
-1.41421 1.22465e-16 -1.41421
-0.765367 1.22465e-16 -1.84776
-1.46804 0.382683 -1.46804
-0.794497 0.382683 -1.91809
-0.765367 1.22465e-16 -1.84776
0 0 -2
-0.794497 0.382683 -1.91809
-3.81377e-16 0.382683 -2.07612
-1.46804 0.382683 -1.46804
-0.794497 0.382683 -1.91809
-1.62132 0.707107 -1.62132
-0.877452 0.707107 -2.11836
-1.62132 -0.707107 -1.62132
-0.877452 -0.707107 -2.11836
-1.46804 -0.382683 -1.46804
-0.794497 -0.382683 -1.91809
-1.46804 -0.382683 -1.46804
-0.794497 -0.382683 -1.91809
-1.41421 1.22465e-16 -1.41421
-0.765367 1.22465e-16 -1.84776
-0.794497 -0.382683 -1.91809
-3.81377e-16 -0.382683 -2.07612
-0.765367 1.22465e-16 -1.84776
0 0 -2
-2.82843 0 -2.82843
-1.53073 0 -3.69552
-2.7746 -0.382683 -2.7746
-1.5016 -0.382683 -3.62519
-3.62519 0.382683 -1.5016
-2.7746 0.382683 -2.7746
-3.69552 0 -1.53073
-2.82843 0 -2.82843
-2.7746 0.382683 -2.7746
-1.5016 0.382683 -3.62519
-2.82843 0 -2.82843
-1.53073 0 -3.69552
-1.41421 1.22465e-16 1.41421
-1.84776 1.22465e-16 0.765367
-1.46804 0.382683 1.46804
-1.91809 0.382683 0.794497
-1.84776 1.22465e-16 0.765367
-2 0 0
-1.91809 0.382683 0.794497
-2.07612 0.382683 2.54251e-16
-1.91809 0.382683 0.794497
-2.07612 0.382683 2.54251e-16
-2.11836 0.707107 0.877452
-2.29289 0.707107 2.80798e-16
-1.62132 0.707107 1.62132
-2.11836 0.707107 0.877452
-1.85072 0.92388 1.85072
-2.41809 0.92388 1.0016
-2.11836 0.707107 0.877452
-2.29289 0.707107 2.80798e-16
-2.41809 0.92388 1.0016
-2.61732 0.92388 3.20529e-16
-1.85072 0.92388 1.85072
-2.41809 0.92388 1.0016
-2.12132 1 2.12132
-2.77164 1 1.14805
-2.12132 -1 2.12132
-2.77164 -1 1.14805
-1.85072 -0.92388 1.85072
-2.41809 -0.92388 1.0016
-2.41809 -0.92388 1.0016
-2.61732 -0.92388 3.20529e-16
-2.11836 -0.707107 0.877452
-2.29289 -0.707107 2.80798e-16
-2.11836 -0.707107 0.877452
-2.29289 -0.707107 2.80798e-16
-1.91809 -0.382683 0.794497
-2.07612 -0.382683 2.54251e-16
-1.46804 -0.382683 1.46804
-1.91809 -0.382683 0.794497
-1.41421 1.22465e-16 1.41421
-1.84776 1.22465e-16 0.765367
-1.91809 -0.382683 0.794497
-2.07612 -0.382683 2.54251e-16
-1.84776 1.22465e-16 0.765367
-2 0 0
-3.69552 0 1.53073
-4 0 0
-3.62519 -0.382683 1.5016
-3.92388 -0.382683 4.80537e-16
-3.62519 -0.382683 1.5016
-3.92388 -0.382683 4.80537e-16
-3.42492 -0.707107 1.41865
-3.70711 -0.707107 4.5399e-16
-2.62132 -0.707107 2.62132
-3.42492 -0.707107 1.41865
-2.39192 -0.92388 2.39192
-3.12519 -0.92388 1.2945
-3.42492 -0.707107 1.41865
-3.70711 -0.707107 4.5399e-16
-3.12519 -0.92388 1.2945
-3.38268 -0.92388 4.14259e-16
-2.39192 0.92388 2.39192
-3.12519 0.92388 1.2945
-2.62132 0.707107 2.62132
-3.42492 0.707107 1.41865
-3.12519 0.92388 1.2945
-3.38268 0.92388 4.14259e-16
-3.42492 0.707107 1.41865
-3.70711 0.707107 4.5399e-16
-3.42492 0.707107 1.41865
-3.70711 0.707107 4.5399e-16
-3.62519 0.382683 1.5016
-3.92388 0.382683 4.80537e-16
-3.62519 0.382683 1.5016
-3.92388 0.382683 4.80537e-16
-3.69552 0 1.53073
-4 0 0
-2.07612 0.382683 2.54251e-16
-1.91809 0.382683 -0.794497
-2.29289 0.707107 2.80798e-16
-2.11836 0.707107 -0.877452
-1.91809 0.382683 -0.794497
-1.46804 0.382683 -1.46804
-2.11836 0.707107 -0.877452
-1.62132 0.707107 -1.62132
-2.29289 0.707107 2.80798e-16
-2.11836 0.707107 -0.877452
-2.61732 0.92388 3.20529e-16
-2.41809 0.92388 -1.0016
-2.11836 0.707107 -0.877452
-1.62132 0.707107 -1.62132
-2.41809 0.92388 -1.0016
-1.85072 0.92388 -1.85072
-2.61732 0.92388 3.20529e-16
-2.41809 0.92388 -1.0016
-3 1 0
-2.77164 1 -1.14805
-3 -1 0
-2.77164 -1 -1.14805
-2.61732 -0.92388 3.20529e-16
-2.41809 -0.92388 -1.0016
-2.61732 -0.92388 3.20529e-16
-2.41809 -0.92388 -1.0016
-2.29289 -0.707107 2.80798e-16
-2.11836 -0.707107 -0.877452
-2.41809 -0.92388 -1.0016
-1.85072 -0.92388 -1.85072
-2.11836 -0.707107 -0.877452
-1.62132 -0.707107 -1.62132
-2.29289 -0.707107 2.80798e-16
-2.11836 -0.707107 -0.877452
-2.07612 -0.382683 2.54251e-16
-1.91809 -0.382683 -0.794497
-2.11836 -0.707107 -0.877452
-1.62132 -0.707107 -1.62132
-1.91809 -0.382683 -0.794497
-1.46804 -0.382683 -1.46804
-3.70711 -0.707107 4.5399e-16
-3.42492 -0.707107 -1.41865
-3.38268 -0.92388 4.14259e-16
-3.12519 -0.92388 -1.2945
-3.42492 -0.707107 -1.41865
-2.62132 -0.707107 -2.62132
-3.12519 -0.92388 -1.2945
-2.39192 -0.92388 -2.39192
-3.12519 -0.92388 -1.2945
-2.39192 -0.92388 -2.39192
-2.77164 -1 -1.14805
-2.12132 -1 -2.12132
-2.77164 1 -1.14805
-2.12132 1 -2.12132
-3.12519 0.92388 -1.2945
-2.39192 0.92388 -2.39192
-3.38268 0.92388 4.14259e-16
-3.12519 0.92388 -1.2945
-3.70711 0.707107 4.5399e-16
-3.42492 0.707107 -1.41865
-3.12519 0.92388 -1.2945
-2.39192 0.92388 -2.39192
-3.42492 0.707107 -1.41865
-2.62132 0.707107 -2.62132
0 0 -2
0.765367 1.22465e-16 -1.84776
-3.81377e-16 0.382683 -2.07612
0.794497 0.382683 -1.91809
0.765367 1.22465e-16 -1.84776
1.41421 1.22465e-16 -1.41421
0.794497 0.382683 -1.91809
1.46804 0.382683 -1.46804
-3.81377e-16 0.382683 -2.07612
0.794497 0.382683 -1.91809
-4.21198e-16 0.707107 -2.29289
0.877452 0.707107 -2.11836
0.794497 0.382683 -1.91809
1.46804 0.382683 -1.46804
0.877452 0.707107 -2.11836
1.62132 0.707107 -1.62132
-4.21198e-16 0.707107 -2.29289
0.877452 0.707107 -2.11836
-4.80793e-16 0.92388 -2.61732
1.0016 0.92388 -2.41809
-4.80793e-16 -0.92388 -2.61732
1.0016 -0.92388 -2.41809
-4.21198e-16 -0.707107 -2.29289
0.877452 -0.707107 -2.11836
-4.21198e-16 -0.707107 -2.29289
0.877452 -0.707107 -2.11836
-3.81377e-16 -0.382683 -2.07612
0.794497 -0.382683 -1.91809
0.877452 -0.707107 -2.11836
1.62132 -0.707107 -1.62132
0.794497 -0.382683 -1.91809
1.46804 -0.382683 -1.46804
-3.81377e-16 -0.382683 -2.07612
0.794497 -0.382683 -1.91809
0 0 -2
0.765367 1.22465e-16 -1.84776
0.794497 -0.382683 -1.91809
1.46804 -0.382683 -1.46804
0.765367 1.22465e-16 -1.84776
1.41421 1.22465e-16 -1.41421
3.69552 0 -1.53073
4 0 0
3.62519 -0.382683 -1.5016
3.92388 -0.382683 0
3.62519 0.382683 -1.5016
3.92388 0.382683 0
3.69552 0 -1.53073
4 0 0
3.42492 -0.707107 -1.41865
3.70711 -0.707107 0
3.12519 -0.92388 -1.2945
3.38268 -0.92388 0
3.12519 0.92388 -1.2945
3.38268 0.92388 0
3.42492 0.707107 -1.41865
3.70711 0.707107 0
1.90647 0.707107 1.27386
1.62132 0.707107 1.62132
2.03247 0.83147 1.35805
1.72847 0.83147 1.72847
2.03247 0.83147 1.35805
1.72847 0.83147 1.72847
2.17622 0.92388 1.4541
1.85072 0.92388 1.85072
2.80491 0.980785 0
2.75101 0.980785 0.547211
3 1 0
2.94236 1 0.585271
2.41809 0.92388 1.0016
2.17622 0.92388 1.4541
2.5914 0.980785 1.07339
2.3322 0.980785 1.55832
2.17622 0.92388 1.4541
1.85072 0.92388 1.85072
2.3322 0.980785 1.55832
1.98337 0.980785 1.98337
1.27386 0.707107 1.90647
0.877452 0.707107 2.11836
1.35805 0.83147 2.03247
0.935443 0.83147 2.25836
1.35805 0.83147 2.03247
0.935443 0.83147 2.25836
1.4541 0.92388 2.17622
1.0016 0.92388 2.41809
3 -1 0
2.94236 -1 0.585271
2.80491 -0.980785 0
2.75101 -0.980785 0.547211
2.5914 -0.980785 1.07339
2.3322 -0.980785 1.55832
2.41809 -0.92388 1.0016
2.17622 -0.92388 1.4541
2.3322 -0.980785 1.55832
1.98337 -0.980785 1.98337
2.17622 -0.92388 1.4541
1.85072 -0.92388 1.85072
2.62132 -0.707107 2.62132
2.05956 -0.707107 3.08235
2.51417 -0.83147 2.51417
1.97537 -0.83147 2.95635
2.05956 -0.707107 3.08235
1.41865 -0.707107 3.42492
1.97537 -0.83147 2.95635
1.36066 -0.83147 3.28492
1.97537 -0.83147 2.95635
1.36066 -0.83147 3.28492
1.87932 -0.92388 2.8126
1.2945 -0.92388 3.12519
-1.53073 0 3.69552
-2.22228 0 3.32588
-1.52338 -0.19509 3.67777
-2.21161 -0.19509 3.3099
-2.22228 0 3.32588
-2.82843 0 2.82843
-2.21161 -0.19509 3.3099
-2.81484 -0.19509 2.81484
-1.52338 -0.19509 3.67777
-2.21161 -0.19509 3.3099
-1.5016 -0.382683 3.62519
-2.17999 -0.382683 3.26259
-2.21161 -0.19509 3.3099
-2.81484 -0.19509 2.81484
-2.17999 -0.382683 3.26259
-2.7746 -0.382683 2.7746
2.17622 -0.92388 1.4541
1.85072 -0.92388 1.85072
2.03247 -0.83147 1.35805
1.72847 -0.83147 1.72847
2.03247 -0.83147 1.35805
1.72847 -0.83147 1.72847
1.90647 -0.707107 1.27386
1.62132 -0.707107 1.62132
3.08235 -0.707107 2.05956
2.62132 -0.707107 2.62132
2.95635 -0.83147 1.97537
2.51417 -0.83147 2.51417
-2.41809 0.92388 -1.0016
-2.17622 0.92388 -1.4541
-2.5914 0.980785 -1.07339
-2.3322 0.980785 -1.55832
-2.17622 0.92388 -1.4541
-1.85072 0.92388 -1.85072
-2.3322 0.980785 -1.55832
-1.98337 0.980785 -1.98337
-2.5914 0.980785 -1.07339
-2.3322 0.980785 -1.55832
-2.77164 1 -1.14805
-2.49441 1 -1.66671
-2.3322 0.980785 -1.55832
-1.98337 0.980785 -1.98337
-2.49441 1 -1.66671
-2.12132 1 -2.12132
-2.77164 -1 -1.14805
-2.49441 -1 -1.66671
-2.5914 -0.980785 -1.07339
-2.3322 -0.980785 -1.55832
-2.49441 -1 -1.66671
-2.12132 -1 -2.12132
-2.3322 -0.980785 -1.55832
-1.98337 -0.980785 -1.98337
-2.5914 -0.980785 -1.07339
-2.3322 -0.980785 -1.55832
-2.41809 -0.92388 -1.0016
-2.17622 -0.92388 -1.4541
-2.3322 -0.980785 -1.55832
-1.98337 -0.980785 -1.98337
-2.17622 -0.92388 -1.4541
-1.85072 -0.92388 -1.85072
1.87932 0.92388 2.8126
1.2945 0.92388 3.12519
1.97537 0.83147 2.95635
1.36066 0.83147 3.28492
2.51417 0.83147 2.51417
1.97537 0.83147 2.95635
2.62132 0.707107 2.62132
2.05956 0.707107 3.08235
1.97537 0.83147 2.95635
1.36066 0.83147 3.28492
2.05956 0.707107 3.08235
1.41865 0.707107 3.42492
2.95635 0.83147 1.97537
2.51417 0.83147 2.51417
3.08235 0.707107 2.05956
2.62132 0.707107 2.62132
2.7746 -0.382683 2.7746
2.17999 -0.382683 3.26259
2.70926 -0.55557 2.70926
2.12865 -0.55557 3.18575
2.17999 -0.382683 3.26259
1.5016 -0.382683 3.62519
2.12865 -0.55557 3.18575
1.46624 -0.55557 3.53982
2.70926 -0.55557 2.70926
2.12865 -0.55557 3.18575
2.62132 -0.707107 2.62132
2.05956 -0.707107 3.08235
2.12865 -0.55557 3.18575
1.46624 -0.55557 3.53982
2.05956 -0.707107 3.08235
1.41865 -0.707107 3.42492
[...]
POINT_DATA 8848
SCALARS U double 1
LOOKUP_TABLE default
0.00166791 0.00110706 0.00172577 0.00075141 0.00172556 0.000751482 0.00166838 0.0011069 3.75044e-05 0.00153871 6.41918e-05 0.00154699 0.00116242 0.00169456 0.00125419 0.00168277 0.00169456 0.00184655 0.00168277 0.00185257 0.00125419 0.00168277 0.00148099 0.00151284 0.00148115 0.00151289 0.00125418 0.0016832 0.00125418 0.0016832 0.00116242 0.00169456 0.0016832 0.001854 0.00169456 0.00184655 0.00153871 0.00131 0.00154699 0.00119641 6.4191e-05 0.00154699 3.75044e-05 0.00153871 0.00154699 0.00119641 0.00153871 0.00131 0.000234015 0.000767077 0.000568488 0.000770673 0.000767077 0.0015606 0.000770673 0.00155869 0.000770673 0.00155869 0.00091454 0.00142087 0.000726561 0.00091454 0.000617089 0.00111437 0.00091454 0.00142087 0.00111437 0.00109593 0.000617089 0.00111437 0.00105525 0.0010741 0.000998423 0.00108314 0.000780339 0.00107559 0.00107559 0.00110463 0.000925688 0.00141712 0.000925688 0.00141712 0.000781465 0.00155778 0.000533911 0.000781465 0.000234015 0.000767077 0.000781465 0.00155778 0.000767077 0.0015606 0.000654342 -0.000130016 0.00066966 -0.000112065 0.00066966 -0.000112065 0.000774033 -2.91409e-05 0.0014235 0.000774033 0.00126786 0.000919298 0.000774033 -2.91409e-05 0.000919298 0.000222421 0.00127029 0.000918661 0.00141959 0.000774572 0.000918661 0.000222533 0.000774572 -2.94486e-05 0.000774572 -2.94486e-05 0.000669425 -0.000112025 0.000669425 -0.000112025 0.000654342 -0.000130016 0.00155869 0.0015911 0.00142087 0.00174767 0.0015911 0.00125419 0.00174767 0.00148099 0.00142087 0.00174767 0.00109593 0.00175763 0.00174767 0.00148099 0.00175763 0.00166791 0.00109593 0.00175763 0.00066522 0.00138063 0.000663514 0.00138107 0.00110463 0.00175566 0.00110463 0.00175566 0.00141712 0.00174665 0.00175566 0.00166838 0.00174665 0.00148115 0.00141712 0.00174665 0.00155778 0.0015909 0.00174665 0.00148115 0.0015909 0.00125418 -2.91409e-05 0.000233902 0.000222421 0.000733646 0.000233902 0.00161745 0.000733646 0.00169066 0.000733646 0.00169066 0.00138107 0.00172556 0.00138063 0.00172577 0.00073371 0.00169062 0.000222533 0.00073371 -2.94486e-05 0.000233961 0.00073371 0.00169062 0.000233961 0.00161744 0.00184655 0.00152863 0.00185257 0.00154242 0.00152863 0.000508163 0.00154242 0.000478904 0.00185257 0.00154242 0.00187558 0.00156066 0.00154242 0.000478904 0.00156066 0.000422592 0.00187558 0.00156066 0.00184631 0.0014979 0.00184624 0.00149786 0.0018759 0.00156055 0.0018759 0.00156055 0.001854 0.00154243 0.00156055 0.000422593 0.00154243 0.000478907 0.001854 0.00154243 0.00184655 0.00152863 0.00154243 0.000478907 0.00152863 0.000508163 0.000132685 0.000164285 0.000136165 0.000199273 0.000136167 0.00019924 0.000132685 0.000164285 0.000162532 0.000298602 0.00020641 0.000391854 0.000206398 0.000391854 0.000162525 0.000298571 0.00235272 0.00341713 0.0022833 0.00315275 0.0022833 0.00315275 0.00218087 0.00275296 0.000850955 0.00193316 0.000607362 0.00145803 0.00200578 0.00218087 0.00186406 0.00211055 0.00218087 0.00275296 0.00211055 0.00234881 0.00345581 0.00346601 0.00319119 0.00321295 0.00319119 0.00321295 0.00281907 0.0028326 0.000607358 0.00145788 0.00085095 0.00193308 0.00186387 0.00211008 0.00200577 0.0021796 0.00211008 0.00234897 0.0021796 0.00275211 0.0018848 0.00219275 0.00199111 0.00220039 0.00219275 0.00204654 0.00220039 0.00206548 0.00220039 0.00206548 0.00219533 0.00208764 0.0024605 0.00198566 0.00239611 0.00199173 0.00198566 0.0017625 0.00199173 0.00176958 0.00239611 0.00199173 0.00157047 0.0017554 0.00199173 0.00176958 0.0017554 0.00180442 0.0021796 0.00275211 0.00227971 0.00314897 0.00227971 0.00314897 0.00234577 0.00340832 0.00164383 0.0018848 0.00165909 0.00199111 0.00175763 0.00171277 0.00156913 0.00168526 0.00171277 0.00166791 0.00168526 0.00169684 0.00156913 0.00168526 0.00138063 0.0015532 0.00168526 0.00169684 0.0015532 0.00172577 0.00138107 0.00155332 0.00156837 0.00168563 0.00155332 0.00172556 0.00168563 0.00169697 0.00156837 0.00168563 0.00175566 0.00171202 0.00168563 0.00169697 0.00171202 0.00166838 0.00219757 0.00208905 0.00220153 0.00207308 0.00199478 0.00220153 0.00188929 0.00219153 0.00220153 0.00207308 0.00219153 0.00206649 0.00166108 0.00199478 0.0016456 0.00188929 0.00202302 0.00224559 0.00189149 0.00221014 0.00224559 0.00201881 0.00221014 0.00202934 0.00189149 0.00221014 0.0018848 0.00219275 0.00221014 0.00202934 0.00219275 0.00204654 0.00188929 0.00219153 0.00189586 0.00221052 0.00219153 0.00206649 0.00221052 0.00205894 0.00189586 0.00221052 0.00203021 0.00223631 0.00221052 0.00205894 0.00223631 0.00209234 0.00157056 0.00175478 0.00239695 0.00199176 0.00175478 0.00180416 0.00199176 0.00176954 0.00239695 0.00199176 0.0024605 0.00198566 0.00199176 0.00176954 0.00198566 0.0017625 0.00148099 0.00149691 0.00157445 0.00144389 0.00149691 0.00151284 0.00144389 0.00133163 0.00157445 0.00144389 0.00166791 0.00138749 0.00144389 0.00133163 0.00138749 0.00110706 0.000298602 0.000582856 0.000345228 0.000543317 0.000582856 0.00051226 0.000543317 0.000607595 0.000345228 0.000543317 0.000391854 0.000648707 0.000543317 0.000607595 0.000648707 0.000819316 0.000391854 0.000648707 0.000477405 0.000968595 0.000648707 0.000819316 0.000968595 0.00120151 0.000477405 0.000968595 0.000607358 0.00145788 0.000968595 0.00120151 0.00145788 0.00160436 0.00151284 0.00169188 0.00133163 0.00159632 0.00169188 0.00187558 0.00159632 0.00186095 0.00133163 0.00159632 0.00110706 0.00143929 0.00159632 0.00186095 0.00143929 0.00184631 0.00166838 0.00138764 0.00157476 0.00144383 0.00138764 0.0011069 0.00144383 0.00133167 0.00157476 0.00144383 0.00148115 0.00149702 0.00144383 0.00133167 0.00149702 0.00151289 0.0011069 0.00143933 0.00133167 0.00159634 0.00143933 0.00184624 0.00159634 0.00186107 0.00133167 0.00159634 0.00151289 0.00169211 0.00159634 0.00186107 0.00169211 0.0018759 -0.000130016 -6.02294e-05 -0.000121041 -6.15455e-05 -6.02294e-05 3.75044e-05 -6.15455e-05 5.08481e-05 -0.000121041 -6.15455e-05 -0.000112065 -4.00942e-05 -6.15455e-05 5.08481e-05 -4.00942e-05 6.41918e-05 -0.000112065 -4.00942e-05 -7.0603e-05 5.3542e-06 -4.00942e-05 6.41918e-05 5.3542e-06 0.000126783 -7.0603e-05 5.3542e-06 -2.91409e-05 0.000102381 5.3542e-06 0.000126783 0.000102381 0.000233902 0.000819316 0.00172953 0.00120151 0.00188451 0.00172953 0.00209873 0.00188451 0.00212167 0.00120151 0.00188451 0.00160436 0.00201997 0.00188451 0.00212167 0.00201997 0.00214714 0.00110706 0.00143929 0.000929237 0.00120165 0.000929237 0.00120165 0.00075141 0.000981592 0.00120165 0.00181171 0.000981592 0.00178884 0.00131 0.00175595 0.00125321 0.0017332 0.00125321 0.0017332 0.00119641 0.00162665 0.000607362 0.00145803 0.000477413 0.000968798 0.00145803 0.00160469 0.000968798 0.001202 0.000477413 0.000968798 0.000391854 0.000648963 0.000968798 0.001202 0.000648963 0.000819967 0.00168277 0.00176767 0.0015978 0.00175086 0.00176767 0.00185257 0.00175086 0.00186408 0.0015978 0.00175086 0.00151284 0.00169188 0.00175086 0.00186408 0.00169188 0.00187558 0.00160469 0.00202059 0.001202 0.00188568 0.00202059 0.00214761 0.00188568 0.00212335 0.001202 0.00188568 0.000819967 0.00173128 0.00188568 0.00212335 0.00173128 0.00210144 0.00283154 0.00285706 0.00320592 0.00324557 0.00119641 0.00162665 0.00106209 0.00146073 0.00106209 0.00146073 0.000911175 0.00122929 0.00146073 0.00198978 0.00122929 0.00192123 0.000391854 0.000648963 0.000345212 0.0005436 0.000648963 0.000819967 0.0005436 0.000608366 0.000345212 0.0005436 0.000298571 0.00058313 0.0005436 0.000608366 0.00058313 0.000513017 0.00165282 0.00225414 0.00163125 0.00218272 0.000911175 0.00122929 0.00106209 0.00146073 0.00122929 0.00192123 0.00146073 0.00198978 0.00106209 0.00146073 0.00119641 0.00162665 0.00119641 0.00162665 0.00125321 0.0017332 0.00125321 0.0017332 0.00131 0.00175595 0.00151289 0.00169211 0.00159804 0.00175152 0.00169211 0.0018759 0.00175152 0.00186495 0.00159804 0.00175152 0.0016832 0.0017686 0.00175152 0.00186495 0.0017686 0.001854 -2.94486e-05 0.000102256 -7.07368e-05 5.36699e-06 0.000102256 0.000233961 5.36699e-06 0.000126793 -7.07368e-05 5.36699e-06 -0.000112025 -4.00967e-05 5.36699e-06 0.000126793 -4.00967e-05 6.4191e-05 0.00163185 0.00218955 0.00165282 0.00225414 0.00204654 0.00122176 0.00206548 0.00148926 0.00206548 0.00148926 0.00208764 0.0019629 0.000751482 0.000981575 0.000929191 0.00120166 0.000981575 0.00178884 0.00120166 0.0018117 0.000929191 0.00120166 0.0011069 0.00143933 0.00275296 0.00281907 0.00234881 0.00243068 0.00281907 0.0028326 0.00243068 0.00250311 0.00234881 0.00243068 0.00214761 0.00220929 0.00243068 0.00250311 0.00220929 0.00229762 0.00208905 0.00196409 0.00207308 0.00147885 -0.000112025 -4.00967e-05 -0.000121021 -6.15522e-05 -4.00967e-05 6.4191e-05 -6.15522e-05 5.08477e-05 -0.000121021 -6.15522e-05 -0.000130016 -6.02294e-05 -6.15522e-05 5.08477e-05 -6.02294e-05 3.75044e-05 0.00341838 0.00229029 0.0033075 0.00225103 0.00229029 0.000234015 0.00225103 0.000401251 0.0033075 0.00225103 0.00313577 0.00195148 0.00225103 0.000401251 0.00195148 0.000568488 0.00255748 0.00189319 0.00250111 0.00207863 0.00189319 0.000617089 0.00207863 0.000836169 0.00250111 0.00207863 0.00246024 0.00206827 0.00207863 0.000836169 0.00206827 0.00105525 0.00214714 0.00221066 0.00234897 0.002437 0.00221066 0.00230078 0.002437 0.00251565 0.00234897 0.002437 0.00275211 0.00283154 0.002437 0.00251565 0.00283154 0.00285706 0.00244842 0.00207799 0.00253233 0.00206306 0.00207799 0.000998423 0.00206306 0.000889381 0.00253233 0.00206306 0.00268366 0.0020793 0.00206306 0.000889381 0.0020793 0.000780339 0.000164285 0.000196733 0.000181779 0.000275023 0.000196733 0.000239697 0.000275023 0.000275693 0.000181779 0.000275023 0.000199273 0.000455794 0.000275023 0.000275693 0.000455794 0.000359468 0.000254357 0.000588458 0.000298602 0.000582856 0.00373166 0.00377022 0.00371538 0.0037522 0.00371538 0.0037522 0.00367273 0.0036905 0.00225414 0.0022217 0.00218272 0.0022432 0.0022217 0.00211538 0.0022432 0.00206371 0.0022432 0.00206371 0.00224559 0.00201881 6.41918e-05 0.000805593 0.000126783 0.000847491 0.000805593 0.00154699 0.000847491 0.00156748 0.000126783 0.000847491 0.000233902 0.000925676 0.000847491 0.00156748 0.000925676 0.00161745 0.00160948 0.00202302 0.00162566 0.00189149 0.00162566 0.00189149 0.00164383 0.0018848 0.00223631 0.00209234 0.00223004 0.00212133 0.00218955 0.00223004 0.00225414 0.0022217 0.00223004 0.00212133 0.0022217 0.00211538 0.000298571 0.00058313 0.00025432 0.00058869 0.0016456 0.00188929 0.0016276 0.00189586 0.0016276 0.00189586 0.00161084 0.00203021 0.00209873 0.00219533 0.00212167 0.00216797 0.00219533 0.00208764 0.00216797 0.00217474 0.00212167 0.00216797 0.00214714 0.00221066 0.00216797 0.00217474 0.00221066 0.00230078 0.00367273 0.0036905 0.00359865 0.00360446 0.00359865 0.00360446 0.00345581 0.00346601 0.0036905 0.00356239 0.00360446 0.00349902 0.00360446 0.00349902 0.00346601 0.00340268 0.00262071 0.00341838 0.00276114 0.0033075 0.00268366 0.0020793 0.00297321 0.00204969 0.0020793 0.000780339 0.00204969 0.00104958 0.00297321 0.00204969 0.00322525 0.00216262 0.00204969 0.00104958 0.00216262 0.000789605 0.00322525 0.00216262 0.00336872 0.00209825 0.00216262 0.000789605 0.00209825 0.00103727 0.00336872 0.00209825 0.0034231 0.00220552 0.00209825 0.00103727 0.00220552 0.000533911 0.00214761 0.00220929 0.00212335 0.00216912 0.00220929 0.00229762 0.00216912 0.00217524 0.00212335 0.00216912 0.00210144 0.00219757 0.00216912 0.00217524 0.00219757 0.00208905 0.0034231 0.00220552 0.00344063 0.00224326 0.00220552 0.000533911 0.00224326 0.000383963 0.00344063 0.00224326 0.00341838 0.00229029 0.00224326 0.000383963 0.00229029 0.000234015 0.00019924 0.000455949 0.000181763 0.000275103 0.000455949 0.000359954 0.000275103 0.000275981 0.000181763 0.000275103 0.000164285 0.000196733 0.000275103 0.000275981 0.000196733 0.000239697 0.00154699 0.0013717 0.00156748 0.00132346 0.0013717 0.00119641 0.00132346 0.00106209 0.00156748 0.00132346 0.00161745 0.00129835 0.00132346 0.00106209 0.00129835 0.000911175 0.00161731 0.00182699 0.00241458 0.00191811 0.00182699 0.00126786 0.00191811 0.00172685 0.00241458 0.00191811 0.00244842 0.00207799 0.00191811 0.00172685 0.00207799 0.000998423 0.00246024 0.00206827 0.00242266 0.00192421 0.00206827 0.00105525 0.00192421 0.00171226 0.00242266 0.00192421 0.00162532 0.0018273 0.00192421 0.00171226 0.0018273 0.00127029 0.00262186 0.00336872 0.00257636 0.0034231 0.000568488 0.00066958 0.00125557 0.000698429 0.00066958 0.000770673 0.000698429 0.000842607 0.00125557 0.000698429 0.000726561 0.000820551 0.000698429 0.000842607 0.000820551 0.00091454 0.00156066 0.000991627 0.00152928 0.00101927 0.000991627 0.000422592 0.00101927 0.000395793 0.00152928 0.00101927 0.0014979 0.00103398 0.00101927 0.000395793 0.00103398 0.000356329 0.00257636 0.0034231 0.00259572 0.00344063 0.00259572 0.00344063 0.00262071 0.00341838 0.0030713 0.00233612 0.00301698 0.00233225 0.000478904 0.000476576 0.000450748 0.000437265 0.000476576 0.000636783 0.000437265 0.000567082 0.000450748 0.000437265 0.000422592 0.00041046 0.000437265 0.000567082 0.00041046 0.000493285 0.00111437 0.00110515 0.00109423 0.000963039 0.00110515 0.00109593 0.000963039 0.000880574 0.00109423 0.000963039 0.0010741 0.000830758 0.000963039 0.000880574 0.000830758 0.00066522 0.00108314 0.000827972 0.00107936 0.000967888 0.000827972 0.000663514 0.000967888 0.000884072 0.00107936 0.000967888 0.00107559 0.00109011 0.000967888 0.000884072 0.00109011 0.00110463 0.000789605 0.000794336 0.00103727 0.000708938 0.000794336 0.000925688 0.000708938 0.000853576 0.00103727 0.000708938 0.000533911 0.000657688 0.000708938 0.000853576 0.000657688 0.000781465 0.0017625 0.00114224 0.00176958 0.00114243 0.00114224 0.000654342 0.00114243 0.000662001 0.00176958 0.00114243 0.00180442 0.00114125 0.00114243 0.000662001 0.00114125 0.00066966 0.000422592 0.00041046 0.000395793 0.000397418 0.00041046 0.000493285 0.000397418 0.000421329 0.000395793 0.000397418 0.000356329 0.000384914 0.000397418 0.000421329 0.000384914 0.000358917 0.00180442 0.00114125 0.00196681 0.0011243 0.00114125 0.00066966 0.0011243 0.000721846 0.00196681 0.0011243 0.0014235 0.00109877 0.0011243 0.000721846 0.00109877 0.000774033 0.00233768 0.00248874 0.00233612 0.00246913 0.00248874 0.0035711 0.00246913 0.00356541 0.00246913 0.00356541 0.00247771 0.00354043 0.00126786 0.00109358 0.00172685 0.00116677 0.00109358 0.000919298 0.00116677 0.000959705 0.00172685 0.00116677 0.000998423 0.00104078 0.00116677 0.000959705 0.00104078 0.00108314 0.000919298 0.00057086 0.000959705 0.000702869 0.00057086 0.000222421 0.000702869 0.00044142 0.000959705 0.000702869 0.00108314 0.000827972 0.000702869 0.00044142 0.000827972 0.000663514 0.00184631 0.00167211 0.00181171 0.0015886 0.00167211 0.0014979 0.0015886 0.00146614 0.00181171 0.0015886 0.00178884 0.00153294 0.0015886 0.00146614 0.00153294 0.00145017 0.0014979 0.00103398 0.00146614 0.00104418 0.00103398 0.000356329 0.00104418 0.000311189 0.00146614 0.00104418 0.00145017 0.0010631 0.00178884 0.00153293 0.0018117 0.00158857 0.00153293 0.00145019 0.00158857 0.00146615 0.0018117 0.00158857 0.00184624 0.00167205 0.00158857 0.00146615 0.00167205 0.00149786 0.00161745 0.00129835 0.00165405 0.00128622 0.00129835 0.000911175 0.00128622 0.000779471 0.00165405 0.00128622 0.00169066 0.00127057 0.00128622 0.000779471 0.00127057 0.000690129 0.000911175 0.00122929 0.000779471 0.000997315 0.000779471 0.000997315 0.000690129 0.000858493 0.00169066 0.00127057 0.00170811 0.00125561 0.00127057 0.000690129 0.00125561 0.00067353 0.00170811 0.00125561 0.00172556 0.00123852 0.00125561 0.00067353 0.00123852 0.000751482 0.000690129 0.000858493 0.00067353 0.000849808 0.00067353 0.000849808 0.000751482 0.000981575 0.00172577 0.00123859 0.0017082 0.00125556 0.00123859 0.00075141 0.00125556 0.000673551 0.0017082 0.00125556 0.00169062 0.00127058 0.00125556 0.000673551 0.00127058 0.000690124 0.00075141 0.000981592 0.000673551 0.0008498 0.000673551 0.0008498 0.000690124 0.000858494 0.00169062 0.00127058 0.00165403 0.00128622 0.00127058 0.000690124 0.00128622 0.00077947 0.00165403 0.00128622 0.00161744 0.00129836 0.00128622 0.00077947 0.00129836 0.000911175 0.000690124 0.000858494 0.00077947 0.000997314 0.00077947 0.000997314 0.000911175 0.00122929 0.00145019 0.0010631 0.00146615 0.00104419 0.00146615 0.00104419 0.00149786 0.00103399 0.00104419 0.000311186 0.00103399 0.00035633 0.000233961 0.000925698 0.000126793 0.000847497 0.000925698 0.00161744 0.000847497 0.00156748 0.000126793 0.000847497 6.4191e-05 0.000805592 0.000847497 0.00156748 0.000805592 0.00154699 0.00105525 0.00106467 0.00171226 0.00116014 0.00106467 0.0010741 0.00116014 0.000961252 0.00171226 0.00116014 0.00127029 0.00109448 0.00116014 0.000961252 0.00109448 0.000918661 0.0010741 0.000830758 0.000961252 0.000702261 0.000830758 0.00066522 0.000702261 0.000441026 0.000961252 0.000702261 0.000918661 0.000570597 0.000702261 0.000441026 0.000570597 0.000222533 0.00161744 0.00129836 0.00156748 0.00132346 0.00129836 0.000911175 0.00132346 0.00106209 0.00156748 0.00132346 0.00154699 0.0013717 0.00132346 0.00106209 0.0013717 0.00119641 0.00141959 0.00109708 0.00196733 0.00112388 0.00109708 0.000774572 0.00112388 0.000721998 0.00196733 0.00112388 0.00180416 0.00114149 0.00112388 0.000721998 0.00114149 0.000669425 0.00149786 0.00103399 0.0015292 0.00101924 0.00103399 0.00035633 0.00101924 0.000395796 0.0015292 0.00101924 0.00156055 0.00099157 0.00101924 0.000395796 0.00099157 0.000422593 0.00180416 0.00114149 0.00176954 0.00114241 0.00114149 0.000669425 0.00114241 0.000661884 0.00176954 0.00114241 0.0017625 0.00114224 0.00114241 0.000661884 0.00114224 0.000654342 0.0015606 0.00157128 0.00155964 0.00157899 0.00157128 0.00149858 0.00157899 0.00152614 0.00155964 0.00157899 0.00155869 0.00157489 0.00157899 0.00152614 0.00157489 0.0015911 0.00149858 0.00132579 0.00152614 0.00134904 0.00132579 0.00116242 0.00134904 0.00120831 0.00152614 0.00134904 0.0015911 0.00142264 0.00134904 0.00120831 0.00142264 0.00125419 0.00155778 0.00157434 0.00155919 0.00157885 0.00157434 0.0015909 0.00157885 0.00152626 0.00155919 0.00157885 0.0015606 0.00157128 0.00157885 0.00152626 0.00157128 0.00149858 0.00128273 0.00142287 0.00128543 0.0014267 0.00128543 0.0014267 0.00129701 0.00142922 0.00142287 0.00114845 0.0014267 0.00114942 0.0014267 0.00114942 0.00142922 0.00114387 0.00129701 0.00142922 0.0013228 0.00143086 0.00198978 0.0013228 0.00192123 0.00136084 0.0013228 0.00143086 0.00136084 0.00143623 0.00142922 0.00114387 0.00143086 0.00113434 0.00143086 0.00113434 0.00143623 0.00112559 0.00136084 0.00143623 0.00139831 0.00144436 0.00139831 0.00144436 0.00144448 0.00144773 0.00143623 0.00112559 0.00144436 0.00111397 0.00144436 0.00111397 0.00144773 0.00109831 0.00144448 0.00144773 0.0014872 0.00144852 0.0014872 0.00144852 0.00153293 0.00145019 0.00144773 0.00109831 0.00144852 0.00107979 0.00144852 0.00107979 0.00145019 0.0010631 0.00153294 0.00145017 0.0014872 0.00144853 0.0014872 0.00144853 0.00144448 0.00144774 0.00145017 0.0010631 0.00144853 0.00107979 0.00144853 0.00107979 0.00144774 0.00109831 0.00144448 0.00144774 0.00139831 0.00144437 0.00139831 0.00144437 0.00136084 0.00143623 0.00144774 0.00109831 0.00144437 0.00111398 0.00144437 0.00111398 0.00143623 0.0011256 0.00192123 0.00136084 0.00198978 0.0013228 0.00136084 0.00143623 0.0013228 0.00143086 0.0013228 0.00143086 0.00129701 0.00142923 0.00143623 0.0011256 0.00143086 0.00113434 0.00143086 0.00113434 0.00142923 0.00114387 0.00129701 0.00142923 0.00128543 0.0014267 0.00128543 0.0014267 0.00128273 0.00142287 0.00142923 0.00114387 0.0014267 0.00114943 0.0014267 0.00114943 0.00142287 0.00114845 0.000356329 0.000384914 0.000311189 0.000371763 0.000384914 0.000358917 0.000371763 0.000312244 0.000311189 0.000371763 0.000277915 0.000360424 0.000371763 0.000312244 0.000360424 0.000275749 0.000125817 0.000390299 0.000125152 0.000389316 0.000390299 0.000132685 0.000389316 0.000134425 0.000125152 0.000389316 0.000128322 0.00038727 0.000389316 0.000134425 0.00038727 0.000136165 0.000128322 0.0003