# vtk DataFile Version 3.0
#This file was generated by the deal.II library on 2023/3/1 at 3:09:30
ASCII
DATASET UNSTRUCTURED_GRID

FIELD FieldData 2
CYCLE 1 1 int
4
TIME 1 1 double
0.008
POINTS 3208 double
1.41421 1.22465e-16 1.41421
0 0 2
1.62132 0.707107 1.62132
1.40399e-16 0.707107 2.29289
1.62132 0.707107 1.62132
1.40399e-16 0.707107 2.29289
2.12132 1 2.12132
0 1 3
1.62132 -0.707107 1.62132
1.40399e-16 -0.707107 2.29289
1.41421 1.22465e-16 1.41421
0 0 2
4 0 0
2.82843 0 2.82843
3.70711 -0.707107 0
2.62132 -0.707107 2.62132
2.82843 0 2.82843
0 0 4
2.62132 -0.707107 2.62132
2.26995e-16 -0.707107 3.70711
2.62132 -0.707107 2.62132
2.26995e-16 -0.707107 3.70711
2.12132 -1 2.12132
0 -1 3
2.62132 0.707107 2.62132
2.26995e-16 0.707107 3.70711
2.82843 0 2.82843
0 0 4
0 0 2
-1.41421 1.22465e-16 1.41421
1.40399e-16 0.707107 2.29289
-1.62132 0.707107 1.62132
1.40399e-16 0.707107 2.29289
-1.62132 0.707107 1.62132
0 1 3
-2.12132 1 2.12132
0 -1 3
-2.12132 -1 2.12132
1.40399e-16 -0.707107 2.29289
-1.62132 -0.707107 1.62132
1.40399e-16 -0.707107 2.29289
-1.62132 -0.707107 1.62132
0 0 2
-1.41421 1.22465e-16 1.41421
0 0 4
-2.82843 0 2.82843
2.26995e-16 -0.707107 3.70711
-2.62132 -0.707107 2.62132
2.26995e-16 -0.707107 3.70711
-2.62132 -0.707107 2.62132
0 -1 3
-2.12132 -1 2.12132
0 1 3
-2.12132 1 2.12132
2.26995e-16 0.707107 3.70711
-2.62132 0.707107 2.62132
2.26995e-16 0.707107 3.70711
-2.62132 0.707107 2.62132
0 0 4
-2.82843 0 2.82843
-1.41421 1.22465e-16 -1.41421
0 0 -2
-1.62132 0.707107 -1.62132
-4.21198e-16 0.707107 -2.29289
-1.62132 -0.707107 -1.62132
-4.21198e-16 -0.707107 -2.29289
-1.41421 1.22465e-16 -1.41421
0 0 -2
-2.82843 0 -2.82843
0 0 -4
-2.62132 -0.707107 -2.62132
-6.80984e-16 -0.707107 -3.70711
-2.62132 0.707107 -2.62132
-6.80984e-16 0.707107 -3.70711
-2.82843 0 -2.82843
0 0 -4
0 0 -2
1.41421 1.22465e-16 -1.41421
-4.21198e-16 0.707107 -2.29289
1.62132 0.707107 -1.62132
0 -1 -3
2.12132 -1 -2.12132
-4.21198e-16 -0.707107 -2.29289
1.62132 -0.707107 -1.62132
0 0 -4
2.82843 0 -2.82843
-6.80984e-16 -0.707107 -3.70711
2.62132 -0.707107 -2.62132
2.82843 0 -2.82843
4 0 0
2.62132 -0.707107 -2.62132
3.70711 -0.707107 0
-6.80984e-16 -0.707107 -3.70711
2.62132 -0.707107 -2.62132
0 -1 -3
2.12132 -1 -2.12132
0 1 -3
2.12132 1 -2.12132
-6.80984e-16 0.707107 -3.70711
2.62132 0.707107 -2.62132
-6.80984e-16 0.707107 -3.70711
2.62132 0.707107 -2.62132
0 0 -4
2.82843 0 -2.82843
2.62132 0.707107 -2.62132
3.70711 0.707107 0
2.82843 0 -2.82843
4 0 0
2.11836 0.707107 0.877452
1.62132 0.707107 1.62132
2.41809 0.92388 1.0016
1.85072 0.92388 1.85072
2.41809 0.92388 1.0016
1.85072 0.92388 1.85072
2.77164 1 1.14805
2.12132 1 2.12132
2.41809 -0.92388 1.0016
1.85072 -0.92388 1.85072
2.11836 -0.707107 0.877452
1.62132 -0.707107 1.62132
2 0 0
1.84776 1.22465e-16 0.765367
2.07612 0.382683 0
1.91809 0.382683 0.794497
1.84776 1.22465e-16 0.765367
1.41421 1.22465e-16 1.41421
1.91809 0.382683 0.794497
1.46804 0.382683 1.46804
1.91809 0.382683 0.794497
1.46804 0.382683 1.46804
2.11836 0.707107 0.877452
1.62132 0.707107 1.62132
-1.41421 1.22465e-16 1.41421
-1.84776 1.22465e-16 0.765367
-1.46804 0.382683 1.46804
-1.91809 0.382683 0.794497
-1.46804 0.382683 1.46804
-1.91809 0.382683 0.794497
-1.62132 0.707107 1.62132
-2.11836 0.707107 0.877452
-1.62132 0.707107 1.62132
-2.11836 0.707107 0.877452
-1.85072 0.92388 1.85072
-2.41809 0.92388 1.0016
-1.85072 0.92388 1.85072
-2.41809 0.92388 1.0016
-2.12132 1 2.12132
-2.77164 1 1.14805
-2.12132 -1 2.12132
-2.77164 -1 1.14805
-1.85072 -0.92388 1.85072
-2.41809 -0.92388 1.0016
-1.85072 -0.92388 1.85072
-2.41809 -0.92388 1.0016
-1.62132 -0.707107 1.62132
-2.11836 -0.707107 0.877452
2.11836 -0.707107 0.877452
1.62132 -0.707107 1.62132
1.91809 -0.382683 0.794497
1.46804 -0.382683 1.46804
1.91809 -0.382683 0.794497
1.46804 -0.382683 1.46804
1.84776 1.22465e-16 0.765367
1.41421 1.22465e-16 1.41421
3.12519 0.92388 1.2945
2.39192 0.92388 2.39192
3.42492 0.707107 1.41865
2.62132 0.707107 2.62132
-1.84776 1.22465e-16 -0.765367
-1.41421 1.22465e-16 -1.41421
-1.91809 0.382683 -0.794497
-1.46804 0.382683 -1.46804
-1.91809 0.382683 -0.794497
-1.46804 0.382683 -1.46804
-2.11836 0.707107 -0.877452
-1.62132 0.707107 -1.62132
-2.11836 -0.707107 -0.877452
-1.62132 -0.707107 -1.62132
-1.91809 -0.382683 -0.794497
-1.46804 -0.382683 -1.46804
-1.91809 -0.382683 -0.794497
-1.46804 -0.382683 -1.46804
-1.84776 1.22465e-16 -0.765367
-1.41421 1.22465e-16 -1.41421
-2.11836 0.707107 -0.877452
-1.62132 0.707107 -1.62132
-2.41809 0.92388 -1.0016
-1.85072 0.92388 -1.85072
-1.62132 -0.707107 1.62132
-2.11836 -0.707107 0.877452
-1.46804 -0.382683 1.46804
-1.91809 -0.382683 0.794497
-1.46804 -0.382683 1.46804
-1.91809 -0.382683 0.794497
-1.41421 1.22465e-16 1.41421
-1.84776 1.22465e-16 0.765367
-2.62132 -0.707107 2.62132
-3.42492 -0.707107 1.41865
-2.39192 -0.92388 2.39192
-3.12519 -0.92388 1.2945
-2.39192 -0.92388 2.39192
-3.12519 -0.92388 1.2945
-2.12132 -1 2.12132
-2.77164 -1 1.14805
1.85072 0.92388 -1.85072
2.41809 0.92388 -1.0016
2.12132 1 -2.12132
2.77164 1 -1.14805
2.12132 -1 -2.12132
2.77164 -1 -1.14805
1.85072 -0.92388 -1.85072
2.41809 -0.92388 -1.0016
1.85072 -0.92388 -1.85072
2.41809 -0.92388 -1.0016
1.62132 -0.707107 -1.62132
2.11836 -0.707107 -0.877452
-2.12132 1 2.12132
-2.77164 1 1.14805
-2.39192 0.92388 2.39192
-3.12519 0.92388 1.2945
-2.39192 0.92388 2.39192
-3.12519 0.92388 1.2945
-2.62132 0.707107 2.62132
-3.42492 0.707107 1.41865
-2.12132 -1 -2.12132
-1.14805 -1 -2.77164
-1.85072 -0.92388 -1.85072
-1.0016 -0.92388 -2.41809
-1.14805 -1 -2.77164
0 -1 -3
-1.0016 -0.92388 -2.41809
-4.80793e-16 -0.92388 -2.61732
-1.85072 -0.92388 -1.85072
-1.0016 -0.92388 -2.41809
-1.62132 -0.707107 -1.62132
-0.877452 -0.707107 -2.11836
-1.0016 -0.92388 -2.41809
-4.80793e-16 -0.92388 -2.61732
-0.877452 -0.707107 -2.11836
-4.21198e-16 -0.707107 -2.29289
2.62132 -0.707107 -2.62132
3.42492 -0.707107 -1.41865
2.39192 -0.92388 -2.39192
3.12519 -0.92388 -1.2945
3.42492 -0.707107 -1.41865
3.70711 -0.707107 0
3.12519 -0.92388 -1.2945
3.38268 -0.92388 0
2.39192 -0.92388 -2.39192
3.12519 -0.92388 -1.2945
2.12132 -1 -2.12132
2.77164 -1 -1.14805
3.12519 -0.92388 -1.2945
3.38268 -0.92388 0
2.77164 -1 -1.14805
3 -1 0
2.12132 1 -2.12132
2.77164 1 -1.14805
2.39192 0.92388 -2.39192
3.12519 0.92388 -1.2945
2.39192 0.92388 -2.39192
3.12519 0.92388 -1.2945
2.62132 0.707107 -2.62132
3.42492 0.707107 -1.41865
3.12519 0.92388 -1.2945
3.38268 0.92388 0
3.42492 0.707107 -1.41865
3.70711 0.707107 0
-3.12519 0.92388 -1.2945
-2.39192 0.92388 -2.39192
-3.42492 0.707107 -1.41865
-2.62132 0.707107 -2.62132
2.12132 1 2.12132
1.14805 1 2.77164
2.39192 0.92388 2.39192
1.2945 0.92388 3.12519
1.14805 1 2.77164
0 1 3
1.2945 0.92388 3.12519
2.0713e-16 0.92388 3.38268
2.39192 0.92388 2.39192
1.2945 0.92388 3.12519
2.62132 0.707107 2.62132
1.41865 0.707107 3.42492
1.2945 0.92388 3.12519
2.0713e-16 0.92388 3.38268
1.41865 0.707107 3.42492
2.26995e-16 0.707107 3.70711
-4 0 0
-3.69552 0 -1.53073
-3.92388 -0.382683 4.80537e-16
-3.62519 -0.382683 -1.5016
-3.69552 0 -1.53073
-2.82843 0 -2.82843
-3.62519 -0.382683 -1.5016
-2.7746 -0.382683 -2.7746
-3.62519 -0.382683 -1.5016
-2.7746 -0.382683 -2.7746
-3.42492 -0.707107 -1.41865
-2.62132 -0.707107 -2.62132
-2.62132 -0.707107 -2.62132
-1.41865 -0.707107 -3.42492
-2.39192 -0.92388 -2.39192
-1.2945 -0.92388 -3.12519
-1.41865 -0.707107 -3.42492
-6.80984e-16 -0.707107 -3.70711
-1.2945 -0.92388 -3.12519
-6.21389e-16 -0.92388 -3.38268
-2.39192 -0.92388 -2.39192
-1.2945 -0.92388 -3.12519
-2.12132 -1 -2.12132
-1.14805 -1 -2.77164
-1.2945 -0.92388 -3.12519
-6.21389e-16 -0.92388 -3.38268
-1.14805 -1 -2.77164
0 -1 -3
1.41421 1.22465e-16 -1.41421
1.84776 1.22465e-16 -0.765367
1.46804 0.382683 -1.46804
1.91809 0.382683 -0.794497
1.46804 0.382683 -1.46804
1.91809 0.382683 -0.794497
1.62132 0.707107 -1.62132
2.11836 0.707107 -0.877452
1.46804 -0.382683 -1.46804
1.91809 -0.382683 -0.794497
1.41421 1.22465e-16 -1.41421
1.84776 1.22465e-16 -0.765367
2.12132 -1 2.12132
1.14805 -1 2.77164
1.85072 -0.92388 1.85072
1.0016 -0.92388 2.41809
1.14805 -1 2.77164
0 -1 3
1.0016 -0.92388 2.41809
1.60264e-16 -0.92388 2.61732
1.85072 -0.92388 1.85072
1.0016 -0.92388 2.41809
1.62132 -0.707107 1.62132
0.877452 -0.707107 2.11836
1.0016 -0.92388 2.41809
1.60264e-16 -0.92388 2.61732
0.877452 -0.707107 2.11836
1.40399e-16 -0.707107 2.29289
3.70711 0.707107 0
3.42492 0.707107 1.41865
3.92388 0.382683 0
3.62519 0.382683 1.5016
3.42492 0.707107 1.41865
2.62132 0.707107 2.62132
3.62519 0.382683 1.5016
2.7746 0.382683 2.7746
3.92388 0.382683 0
3.62519 0.382683 1.5016
4 0 0
3.69552 0 1.53073
3.62519 0.382683 1.5016
2.7746 0.382683 2.7746
3.69552 0 1.53073
2.82843 0 2.82843
3.70711 -0.707107 0
3.42492 -0.707107 1.41865
3.38268 -0.92388 0
3.12519 -0.92388 1.2945
3.42492 -0.707107 1.41865
2.62132 -0.707107 2.62132
3.12519 -0.92388 1.2945
2.39192 -0.92388 2.39192
3.12519 -0.92388 1.2945
2.39192 -0.92388 2.39192
2.77164 -1 1.14805
2.12132 -1 2.12132
-2.82843 0 2.82843
-3.69552 0 1.53073
-2.7746 -0.382683 2.7746
-3.62519 -0.382683 1.5016
-3.69552 0 1.53073
-4 0 0
-3.62519 -0.382683 1.5016
-3.92388 -0.382683 4.80537e-16
-2.7746 -0.382683 2.7746
-3.62519 -0.382683 1.5016
-2.62132 -0.707107 2.62132
-3.42492 -0.707107 1.41865
-3.62519 -0.382683 1.5016
-3.92388 -0.382683 4.80537e-16
-3.42492 -0.707107 1.41865
-3.70711 -0.707107 4.5399e-16
-2.12132 1 -2.12132
-1.14805 1 -2.77164
-2.39192 0.92388 -2.39192
-1.2945 0.92388 -3.12519
-1.14805 1 -2.77164
0 1 -3
-1.2945 0.92388 -3.12519
-6.21389e-16 0.92388 -3.38268
-2.39192 0.92388 -2.39192
-1.2945 0.92388 -3.12519
-2.62132 0.707107 -2.62132
-1.41865 0.707107 -3.42492
-1.2945 0.92388 -3.12519
-6.21389e-16 0.92388 -3.38268
-1.41865 0.707107 -3.42492
-6.80984e-16 0.707107 -3.70711
-3.70711 0.707107 4.5399e-16
-3.42492 0.707107 -1.41865
-3.92388 0.382683 4.80537e-16
-3.62519 0.382683 -1.5016
-3.42492 0.707107 -1.41865
-2.62132 0.707107 -2.62132
-3.62519 0.382683 -1.5016
-2.7746 0.382683 -2.7746
-3.92388 0.382683 4.80537e-16
-3.62519 0.382683 -1.5016
-4 0 0
[...]
POINT_DATA 3208
SCALARS U double 1
LOOKUP_TABLE default
-5.65997e-05 2.04019e-05 -0.000191467 5.42163e-05 -0.000191467 5.42163e-05 -0.000113743 2.01099e-05 -0.000218799 3.82112e-05 -5.65997e-05 2.04019e-05 1.10689e-05 1.73096e-05 -3.7373e-05 -2.72705e-05 1.73096e-05 -3.4952e-06 -2.72705e-05 1.15513e-05 -2.72705e-05 1.15513e-05 -0.000125603 1.68259e-05 -4.37566e-05 2.59322e-06 1.73096e-05 -3.4952e-06 2.04019e-05 -7.02399e-06 5.42163e-05 -1.96504e-05 5.42163e-05 -1.96504e-05 2.01099e-05 -8.02863e-06 1.68259e-05 -5.66717e-06 3.82112e-05 -1.32996e-05 3.82112e-05 -1.32996e-05 2.04019e-05 -7.02399e-06 -3.4952e-06 1.55619e-06 1.15513e-05 -6.4344e-06 1.15513e-05 -6.4344e-06 1.68259e-05 -5.66717e-06 2.01099e-05 -8.02863e-06 2.59322e-06 1.5836e-07 2.59322e-06 1.5836e-07 -3.4952e-06 1.55619e-06 -0.000183063 5.59487e-05 -0.000178888 4.67479e-05 -0.000135675 3.48599e-05 -0.000183063 5.59487e-05 1.9885e-06 9.88105e-07 -8.73085e-06 6.13875e-07 -3.22255e-05 3.94177e-06 1.9885e-06 9.88105e-07 5.59487e-05 -1.94587e-05 4.67479e-05 -1.71641e-05 -5.78811e-06 9.3584e-07 3.48599e-05 -1.22895e-05 9.88105e-07 -2.86575e-06 6.13875e-07 9.26785e-06 -2.86575e-06 1.10689e-05 9.26785e-06 -3.7373e-05 6.13875e-07 9.26785e-06 -5.78811e-06 9.3584e-07 1.47059e-06 -3.38393e-06 3.94177e-06 2.89636e-07 3.94177e-06 2.89636e-07 9.88105e-07 -2.86575e-06 2.89636e-07 -7.79011e-06 -2.86575e-06 1.10689e-05 0.00169184 -0.000191467 0.0016454 -0.000152605 0.0016454 -0.000152605 0.0012254 -0.000113743 0.00117507 -0.000126189 0.00166124 -0.000218799 0.00153006 0.000966747 0.00152448 0.000997891 0.000966747 -5.65997e-05 0.000997891 -0.000124033 0.000997891 -0.000124033 0.00169184 -0.000191467 -7.02399e-06 6.20046e-06 -1.33372e-05 6.45432e-06 -1.33372e-05 6.45432e-06 -1.96504e-05 9.95999e-06 -1.96504e-05 9.95999e-06 -1.38395e-05 1.49554e-05 -1.38395e-05 1.49554e-05 -8.02863e-06 1.65726e-06 -5.66717e-06 3.61564e-06 -9.48341e-06 4.82476e-06 -9.48341e-06 4.82476e-06 -1.32996e-05 7.89295e-06 0.00166124 -0.000218799 0.00169217 -0.0001377 0.00169217 -0.0001377 0.000966747 -5.65997e-05 0.000893377 -0.000167311 0.000271289 -4.37566e-05 0.00157353 -0.000183063 0.00161106 -0.000180975 0.00161106 -0.000180975 0.00166433 -0.000178888 0.001282 -0.000135675 0.00160721 -0.000159369 0.00160721 -0.000159369 0.00157353 -0.000183063 0.00166433 -0.000178888 0.00134923 -0.000234659 -1.32996e-05 7.89295e-06 -1.01618e-05 -2.20691e-06 -1.01618e-05 -2.20691e-06 -7.02399e-06 6.20046e-06 -6.4344e-06 2.6842e-05 -6.05078e-06 1.65697e-06 -6.05078e-06 1.65697e-06 -5.66717e-06 3.61564e-06 1.96229e-06 4.13606e-07 -3.38393e-06 8.03513e-06 9.3584e-07 7.88116e-06 -5.67684e-06 5.26075e-06 -5.67684e-06 5.26075e-06 -1.22895e-05 6.54321e-06 -8.02863e-06 1.65726e-06 -3.93513e-06 1.18787e-05 -3.93513e-06 1.18787e-05 1.5836e-07 -1.54275e-05 1.82282e-05 -7.38968e-06 7.45345e-05 -4.42382e-06 -7.38968e-06 -5.78811e-06 -4.42382e-06 1.45359e-05 7.45345e-05 -4.42382e-06 -0.000135675 -5.04075e-05 -4.42382e-06 1.45359e-05 -5.04075e-05 3.48599e-05 9.26785e-06 -1.40526e-05 5.10184e-06 -3.39957e-05 -1.40526e-05 -3.7373e-05 -3.39957e-05 0.000152005 5.10184e-06 -3.39957e-05 9.3584e-07 7.88116e-06 -3.39957e-05 0.000152005 7.88116e-06 -3.2178e-05 -3.38393e-06 8.03513e-06 -1.54715e-06 1.65614e-05 -1.54715e-06 1.65614e-05 2.89636e-07 -3.75024e-06 1.65614e-05 -6.72011e-05 -3.75024e-06 -7.79011e-06 0.000844391 -0.000203363 0.000251291 -3.22255e-05 -0.000113743 -4.68164e-05 -0.000167311 6.0413e-05 -4.68164e-05 2.01099e-05 6.0413e-05 1.13516e-05 -0.000167311 6.0413e-05 -4.37566e-05 -2.05817e-05 6.0413e-05 1.13516e-05 -2.05817e-05 2.59322e-06 -4.27336e-06 -2.14935e-05 2.80681e-05 0.000158964 -2.14935e-05 1.9885e-06 0.000158964 -3.37117e-06 0.000158964 -3.37117e-06 -2.95421e-05 -8.73085e-06 -8.73085e-06 -4.05849e-06 4.64044e-05 -8.63874e-06 -4.05849e-06 6.13875e-07 -8.63874e-06 -2.58712e-06 4.64044e-05 -8.63874e-06 1.82282e-05 -7.38968e-06 -8.63874e-06 -2.58712e-06 -7.38968e-06 -5.78811e-06 -1.94587e-05 8.74687e-06 -1.83114e-05 1.25097e-05 -1.83114e-05 1.25097e-05 -1.71641e-05 8.60881e-06 1.19367e-05 -3.64474e-06 -1.94587e-05 8.74687e-06 -0.000125603 -5.43885e-05 -0.000126189 7.33154e-05 -5.43885e-05 1.68259e-05 7.33154e-05 2.75185e-05 -0.000126189 7.33154e-05 -0.000218799 -9.02941e-05 7.33154e-05 2.75185e-05 -9.02941e-05 3.82112e-05 -7.79011e-06 0.000271289 1.63941e-06 -5.34934e-05 0.000271289 -4.37566e-05 -5.34934e-05 -1.32235e-05 1.63941e-06 -5.34934e-05 1.10689e-05 1.41893e-05 -5.34934e-05 -1.32235e-05 1.41893e-05 1.73096e-05 -3.7373e-05 -3.23218e-05 0.000152005 0.000533612 -3.23218e-05 -2.72705e-05 0.000533612 -7.64367e-05 0.000533612 -7.64367e-05 0.00137267 -0.000125603 1.55619e-06 5.81108e-07 -2.4391e-06 -6.10746e-06 5.81108e-07 -4.27336e-06 -6.10746e-06 2.80681e-05 -2.4391e-06 -6.10746e-06 -6.4344e-06 2.6842e-05 -6.10746e-06 2.80681e-05 2.6842e-05 -0.000105017 0.000161203 -4.63411e-05 -0.000203363 5.57038e-05 -4.63411e-05 1.47059e-06 5.57038e-05 2.70618e-06 -0.000203363 5.57038e-05 -3.22255e-05 -1.41419e-05 5.57038e-05 2.70618e-06 -1.41419e-05 3.94177e-06 6.05902e-05 0.000251291 -1.26452e-05 -4.18474e-05 0.000251291 -3.22255e-05 -4.18474e-05 -1.51185e-05 -1.26452e-05 -4.18474e-05 -4.27336e-06 -2.14935e-05 -4.18474e-05 -1.51185e-05 -2.14935e-05 1.9885e-06 1.5836e-07 -1.54275e-05 8.57274e-07 3.01598e-06 -1.54275e-05 6.05902e-05 3.01598e-06 -1.26452e-05 8.57274e-07 3.01598e-06 1.55619e-06 5.81108e-07 3.01598e-06 -1.26452e-05 5.81108e-07 -4.27336e-06 -0.000178888 -6.60698e-05 -0.000234659 8.6951e-05 -6.60698e-05 4.67479e-05 8.6951e-05 -2.66528e-05 -0.000234659 8.6951e-05 0.000161203 -4.63411e-05 8.6951e-05 -2.66528e-05 -4.63411e-05 1.47059e-06 4.67479e-05 1.47919e-05 -2.66528e-05 1.5403e-06 1.47919e-05 -1.71641e-05 1.5403e-06 1.96229e-06 -2.66528e-05 1.5403e-06 1.47059e-06 -9.56671e-07 1.5403e-06 1.96229e-06 -9.56671e-07 -3.38393e-06 3.48599e-05 1.12852e-05 4.54043e-05 -2.46432e-05 1.12852e-05 -1.22895e-05 -2.46432e-05 1.19367e-05 4.54043e-05 -2.46432e-05 5.59487e-05 1.8245e-05 -2.46432e-05 1.19367e-05 1.8245e-05 -1.94587e-05 9.95999e-06 -2.16259e-05 1.24577e-05 -7.33363e-05 1.24577e-05 -7.33363e-05 1.49554e-05 -7.88013e-05 -7.33363e-05 0.00051129 -7.88013e-05 0.000475359 1.49554e-05 -7.88013e-05 8.30635e-06 -1.23293e-05 8.30635e-06 -1.23293e-05 1.65726e-06 -3.46352e-06 3.61564e-06 -8.78332e-06 4.2202e-06 -6.83501e-06 4.2202e-06 -6.83501e-06 4.82476e-06 -9.92843e-06 0.00173349 0.00166433 0.00151971 0.00150678 0.00151971 0.00150678 0.00160437 0.00134923 0.00160437 0.00134923 0.00138076 0.000901018 0.000714171 -0.000174815 0.000686927 -0.000179497 -0.000174815 1.82282e-05 -0.000179497 4.63813e-05 0.000686927 -0.000179497 0.000673421 -0.000151743 -0.000179497 4.63813e-05 -0.000151743 7.45345e-05 0.0016027 0.000914681 0.00184609 0.001282 0.00175735 0.00169184 0.00147217 0.00166862 0.00147217 0.00166862 0.00174769 0.0016454 0.000415704 0.00174769 0.000343747 0.00185025 0.00174769 0.0016454 0.00185025 0.0014354 0.00185025 0.0014354 0.00107754 0.0012254 0.000117069 0.00181521 0.000270607 0.00221462 0.00181521 0.00117507 0.00221462 0.00141816 0.000270607 0.00221462 0.000673947 0.00175872 0.00221462 0.00141816 0.00175872 0.00166124 6.45432e-06 -1.59045e-05 8.20716e-06 -1.61346e-05 8.20716e-06 -1.61346e-05 9.95999e-06 -2.16259e-05 4.82476e-06 -9.92843e-06 6.35886e-06 -2.28952e-05 6.35886e-06 -2.28952e-05 7.89295e-06 -3.84536e-05 0.00146099 0.00161106 0.00174304 0.00163769 0.000710084 0.00174304 0.000693741 0.00173349 0.00174304 0.00163769 0.00173349 0.00166433 0.00137267 0.000623535 0.00040647 -0.000401605 0.000623535 -0.000125603 -0.000401605 -0.000125896 0.00040647 -0.000401605 0.00117507 0.000524439 -0.000401605 -0.000125896 0.000524439 -0.000126189 0.00152448 0.00126118 0.000855585 0.00217022 0.00126118 0.000997891 0.00217022 0.00134486 0.000855585 0.00217022 0.000694792 0.00175735 0.00217022 0.00134486 0.00175735 0.00169184 0.00148694 -2.95421e-05 0.00115563 0.00103243 0.000646727 -0.000166203 0.000698485 -0.000177362 -0.000166203 4.64044e-05 -0.000177362 3.23163e-05 0.000698485 -0.000177362 0.000714171 -0.000174815 -0.000177362 3.23163e-05 -0.000174815 1.82282e-05 1.65697e-06 -1.27675e-05 2.6363e-06 -5.02526e-06 2.6363e-06 -5.02526e-06 3.61564e-06 -8.78332e-06 8.60881e-06 -1.73779e-05 1.31608e-06 -1.73819e-05 0.00129326 0.00102453 0.00118271 0.00102365 6.20046e-06 -5.89406e-05 6.32739e-06 -1.99517e-05 6.32739e-06 -1.99517e-05 6.45432e-06 -1.59045e-05 0.00175872 0.00166124 0.00143106 0.00167671 0.00143106 0.00167671 0.00173979 0.00169217 0.00184223 0.00157353 0.00147321 0.00159229 0.00147321 0.00159229 0.00146099 0.00161106 2.6842e-05 -3.90876e-05 1.42495e-05 -6.74467e-05 -3.90876e-05 -0.000105017 -6.74467e-05 0.000400613 1.42495e-05 -6.74467e-05 1.65697e-06 -1.27675e-05 4.13606e-07 -8.11665e-06 4.22437e-06 -1.60128e-05 4.22437e-06 -1.60128e-05 8.03513e-06 -7.37479e-05 7.88116e-06 -1.21484e-05 6.57096e-06 -5.95888e-05 -1.21484e-05 -3.2178e-05 -5.95888e-05 0.000273274 6.57096e-06 -5.95888e-05 5.26075e-06 -1.86733e-05 -5.95888e-05 0.000273274 -1.86733e-05 0.000117069 5.26075e-06 -1.86733e-05 5.90198e-06 -2.96645e-05 -1.86733e-05 0.000117069 -2.96645e-05 0.000270607 5.90198e-06 -2.96645e-05 6.54321e-06 -1.55129e-05 1.65726e-06 -3.46352e-06 6.76796e-06 -2.08677e-05 6.76796e-06 -2.08677e-05 1.18787e-05 -7.60256e-05 0.000737358 0.00173979 0.00095396 0.00214208 0.00173979 0.00169217 0.00214208 0.00132946 0.00095396 0.00214208 0.00153006 0.0012484 0.00214208 0.00132946 0.0012484 0.000966747 0.00102453 -0.000248862 0.00102365 -0.000321534 -0.000248862 0.000161203 -0.000321534 -2.108e-05 0.00102365 -0.000321534 0.000844391 0.000320514 -0.000321534 -2.108e-05 0.000320514 -0.000203363 0.00125878 0.000844391 0.00167107 0.000547841 -8.11943e-05 0.00167107 6.05902e-05 0.00015594 0.00167107 0.000547841 0.00015594 0.000251291 1.25097e-05 -0.000105411 1.05592e-05 -4.72796e-05 -0.000105411 0.00152448 -4.72796e-05 0.000855585 1.05592e-05 -4.72796e-05 8.60881e-06 -1.73779e-05 1.76414e-06 -2.18249e-05 -3.64474e-06 -2.36215e-05 0.0012254 0.00055583 0.000555885 -0.000321531 0.00055583 -0.000113743 -0.000321531 -0.000140527 0.000555885 -0.000321531 0.000893377 0.000363033 -0.000321531 -0.000140527 0.000363033 -0.000167311 -6.72011e-05 0.00109238 -3.74956e-05 0.00140918 0.00109238 0.000893377 0.00140918 0.000582333 -3.74956e-05 0.00140918 -7.79011e-06 0.000131749 0.00140918 0.000582333 0.000131749 0.000271289 0.000751824 0.00184609 0.000924158 0.00212175 0.00184609 0.001282 0.00212175 0.0014446 0.000924158 0.00212175 0.000951163 0.00210301 0.00212175 0.0014446 0.00210301 0.00160721 0.000951163 0.00210301 0.000932232 0.00207039 0.00210301 0.00160721 0.00207039 0.00159037 0.000932232 0.00207039 0.000957865 0.00184223 0.00207039 0.00159037 0.00184223 0.00157353 0.00134923 0.000557288 0.000901018 -0.000344003 0.000557288 -0.000234659 -0.000344003 -3.6728e-05 0.000901018 -0.000344003 0.00102453 -0.000248862 -0.000344003 -3.6728e-05 -0.000248862 0.000161203 0.000673421 -0.000151743 0.000914681 -0.000357297 -0.000151743 7.45345e-05 -0.000357297 -3.05702e-05 0.000914681 -0.000357297 0.001282 0.00057316 -0.000357297 -3.05702e-05 0.00057316 -0.000135675 7.89295e-06 -3.84536e-05 2.84302e-06 -7.24314e-06 -3.84536e-05 0.000751824 -7.24314e-06 0.000924158 2.84302e-06 -7.24314e-06 -2.20691e-06 -2.39585e-07 -7.24314e-06 0.000924158 -2.39585e-07 0.000951163 -2.20691e-06 -2.39585e-07 1.99678e-06 1.39093e-06 -2.39585e-07 0.000951163 1.39093e-06 0.000932232 1.99678e-06 1.39093e-06 6.20046e-06 -5.89406e-05 1.39093e-06 0.000932232 -5.89406e-05 0.000957865 -2.95421e-05 -1.91365e-05 0.00103243 -0.000257964 -1.91365e-05 -8.73085e-06 -0.000257964 1.88368e-05 0.00103243 -0.000257964 0.000646727 -0.000166203 -0.000257964 1.88368e-05 -0.000166203 4.64044e-05 -1.71641e-05 -4.27764e-06 -7.6009e-06 1.63293e-06 -4.27764e-06 8.60881e-06 1.63293e-06 1.31608e-06 -7.6009e-06 1.63293e-06 1.96229e-06 1.18795e-06 1.63293e-06 1.31608e-06 1.18795e-06 4.13606e-07 1.18787e-05 -7.60256e-05 -1.77444e-06 2.20122e-05 -7.60256e-05 0.000426418 2.20122e-05 -8.11943e-05 -1.77444e-06 2.20122e-05 -1.54275e-05 2.25813e-05 2.20122e-05 -8.11943e-05 2.25813e-05 6.05902e-05 8.03513e-06 -7.37479e-05 1.22983e-05 -5.50774e-05 -7.37479e-05 0.000447904 -5.50774e-05 0.000278092 1.22983e-05 -5.50774e-05 1.65614e-05 -2.53199e-05 -5.50774e-05 0.000278092 -2.53199e-05 -6.72011e-05 2.80681e-05 9.3516e-05 -3.84745e-05 0.00119672 9.3516e-05 0.000158964 0.00119672 6.47109e-05 -3.84745e-05 0.00119672 -0.000105017 0.00148694 0.00119672 6.47109e-05 0.00148694 -2.95421e-05 8.74687e-06 -9.15787e-05 1.06283e-05 -8.31943e-05 -9.15787e-05 0.00153006 -8.31943e-05 0.00152727 1.06283e-05 -8.31943e-05 1.25097e-05 -0.000105411 -8.31943e-05 0.00152727 -0.000105411 0.00152448 -1.22895e-05 -2.87315e-06 -1.76421e-07 5.07486e-07 -2.87315e-06 6.54321e-06 5.07486e-07 1.76414e-06 -1.76421e-07 5.07486e-07 1.19367e-05 4.14597e-06 5.07486e-07 1.76414e-06 4.14597e-06 -3.64474e-06 -3.64474e-06 -2.36215e-05 2.55107e-06 -3.1942e-06 -2.36215e-05 0.000737358 -3.1942e-06 0.00095396 2.55107e-06 -3.1942e-06 8.74687e-06 -9.15787e-05 -3.1942e-06 0.00095396 -9.15787e-05 0.00153006 0.000152005 0.000342809 5.99136e-05 0.00238583 0.000342809 0.000533612 0.00238583 0.000953143 5.99136e-05 0.00238583 -3.2178e-05 0.00158356 0.00238583 0.000953143 0.00158356 0.00137267 0.000673044 0.00096622 0.00085989 0.00109497 0.00096622 0.000714171 0.00109497 0.000700549 0.00109497 0.000700549 0.00120891 0.000686927 -2.16259e-05 0.000151654 -4.74811e-05 0.000175824 -4.74811e-05 0.000175824 -7.33363e-05 0.000218977 0.000175824 0.000612273 0.000218977 0.00051129 0.00051129 0.000854023 0.000493325 0.000814859 0.000854023 0.00151971 0.000814859 0.00156204 0.000493325 0.000814859 0.000475359 0.000809028 0.000814859 0.00156204 0.000809028 0.00160437 -7.88013e-05 0.000198279 -4.55653e-05 9.30997e-05 0.000198279 0.000475359 9.30997e-05 0.000537827 -4.55653e-05 9.30997e-05 -1.23293e-05 3.30153e-05 -8.78332e-06 2.37773e-05 -7.80917e-06 2.72907e-05 -7.80917e-06 2.72907e-05 -6.83501e-06 3.46829e-05 -6.83501e-06 3.46829e-05 -8.38172e-06 4.77121e-05 -8.38172e-06 4.77121e-05 -9.92843e-06 7.41484e-05 0.000693741 0.00121362 0.000612273 0.00102002 0.00121362 0.00173349 0.00102002 0.0016266 0.000612273 0.00102002 0.00051129 0.000854023 0.00102002 0.0016266 0.000854023 0.00151971 0.00113332 0.00120891 0.00127171 0.00122126 0.00120891 0.000686927 0.00122126 0.000680174 0.00122126 0.000680174 0.00122597 0.000673421 0.000475359 0.000809028 0.000537827 0.000825863 0.000809028 0.00160437 0.000825863 0.00149257 0.000537827 0.000825863 0.000544351 0.000868764 0.000825863 0.00149257 0.000868764 0.00138076 -1.23293e-05 3.30153e-05 -7.89639e-06 2.82182e-05 -7.89639e-06 2.82182e-05 -3.46352e-06 4.78854e-05 0.000868764 0.00138076 0.000997532 0.0010416 0.0007398 0.000859982 0.000576547 0.000936906 0.000859982 0.00147217 0.000936906 0.00160993 0.000576547 0.000936906 0.000415704 0.0010817 0.000936906 0.00160993 0.0010817 0.00174769 0.0011916 0.0014372 0.00106706 0.0016027 0.00138076 0.00114089 0.0010416 0.00100577 0.00114089 0.000901018 0.00100577 0.000962776 0.0010416 0.00100577 0.00129326 0.0011589 0.00100577 0.000962776 0.0011589 0.00102453 0.00129939 0.00122597 0.0014372 0.00115122 0.00122597 0.000673421 0.00115122 0.000794051 0.0014372 0.00115122 0.0016027 0.00125869 0.00115122 0.000794051 0.00125869 0.000914681 0.000343747 0.001097 0.000453753 0.000929713 0.001097 0.00185025 0.000929713 0.0014639 0.000929713 0.0014639 0.000856652 0.00107754 0.000186027 0.00117116 0.00021005 0.00115644 0.00117116 0.000646727 0.00115644 0.000672606 0.00021005 0.00115644 0.00032208 0.00106506 0.00115644 0.000672606 0.00106506 0.000698485 0.00032208 0.00106506 0.000519098 0.000976867 0.00106506 0.000698485 0.000976867 0.000706328 0.000976867 0.000706328 0.00096622 0.000714171 0.00075875 0.00106706 0.000772944 0.00108127 0.00106706 0.0016027 0.00108127 0.0017244 0.000772944 0.00108127 0.000751824 0.00129896 0.00108127 0.0017244 0.00129896 0.00184609 0.000694792 0.00122607 0.000735714 0.00100731 0.00122607 0.00175735 0.00100731 0.00161476 0.000735714 0.00100731 0.0007398 0.000859982 0.00100731 0.00161476 0.000859982 0.00147217 -2.28952e-05 0.000151471 -3.06744e-05 0.000232209 0.000151471 0.00075875 0.000232209 0.000772944 -3.06744e-05 0.000232209 -3.84536e-05 0.000356685 0.000232209 0.000772944 0.000356685 0.000751824 -3.2178e-05 0.000775693 0.000120548 0.000860003 0.000775693 0.00158356 0.000860003 0.00104314 0.000120548 0.000860003 0.000273274 0.000832928 0.000860003 0.00104314 0.000832928 0.00103157 0.00158356 0.00147812 0.00104314 0.00107779 0.00147812 0.00137267 0.00107779 0.000889572 0.00104314 0.00107779 0.00103157 0.00132276 0.00107779 0.000889572 0.00132276 0.00040647 -1.59045e-05 0.000165538 -1.60195e-05 0.000173713 -1.60195e-05 0.000173713 -1.61346e-05 0.000168519 -1.61346e-05 0.000168519 -1.88802e-05 0.000156748 0.000168519 0.000710084 0.000156748 0.000701913 -1.88802e-05 0.000156748 -2.16259e-05 0.000151654 0.000156748 0.000701913 0.000151654 0.000693741 -9.92843e-06 7.41484e-05 -1.64118e-05 0.000105065 -1.64118e-05 0.000105065 -2.28952e-05 0.000151471 0.00079333 0.00112779 0.000708878 0.00110695 0.00112779 0.00146099 0.00110695 0.00160201 0.000708878 0.00110695 0.000710084 0.00122656 0.00110695 0.00160201 0.00122656 0.00174304 0.000273274 0.000832928 0.000195172 0.000855094 0.000832928 0.00103157 0.000855094 0.00149681 0.000195172 0.000855094 0.000117069 0.000966141 0.000855094 0.00149681 0.000966141 0.00181521 -1.27675e-05 4.00756e-05 -8.89639e-06 1.15569e-06 -8.89639e-06 1.15569e-06 -5.02526e-06 2.21997e-05 -5.02526e-06 2.21997e-05 -6.90429e-06 3.75294e-05 2.21997e-05 0.000624773 3.75294e-05 0.000603834 -6.90429e-06 3.75294e-05 -8.78332e-06 2.37773e-05 0.000940904 0.00129326 0.000861979 0.00123798 0.0006561 0.000861979 0.000667329 0.000780243 0.000861979 0.00123798 0.000780243 0.00118271 0.00103157 0.00132276 0.00149681 0.00120294 0.00132276 0.00040647 0.00120294 0.000790768 0.00149681 0.00120294 0.00181521 0.00149514 0.00120294 0.000790768 0.00149514 0.00117507 0.00118271 0.00110318 0.000799476 0.000967738 0.00110318 0.00102365 0.000967738 0.000934021 0.000799476 0.000967738 0.00125878 0.00105158 0.000967738 0.000934021 0.00105158 0.000844391 -0.000105017 0.000690962 0.000147798 0.000705028 0.000690962 0.00148694 0.000705028 0.00132129 0.000147798 0.000705028 0.000400613 0.000751252 0.000705028 0.00132129 0.000751252 0.00115563 0.00115563 0.00109403 0.000493408 0.00107883 0.00109403 0.00103243 0.00107883 0.00083958 0.000493408 0.00107883 0.000186027 0.00117116 0.00107883 0.00083958 0.00117116 0.000646727 -1.73779e-05 0.000177691 -1.73799e-05 0.000142906 0.000177691 0.000694792 0.000142906 0.000735714 -1.73799e-05 0.000142906 -1.73819e-05 0.000125374 0.000142906 0.000735714 0.000125374 0.0007398 1.31608e-06 -8.0329e-06 8.64843e-07 -3.39667e-06 -8.0329e-06 -1.73819e-05 -3.39667e-06 -3.06303e-06 8.64843e-07 -3.39667e-06 4.13606e-07 -3.85152e-06 -3.39667e-06 -3.06303e-06 -3.85152e-06 -8.11665e-06 -5.89406e-05 0.000449462 -3.94461e-05 0.000280431 0.000449462 0.000957865 0.000280431 0.000951775 -3.94461e-05 0.000280431 -1.99517e-05 0.000189189 0.000280431 0.000951775 0.000189189 0.000948009 -1.99517e-05 0.000189189 -1.79281e-05 0.000163824 0.000189189 0.000948009 0.000163824 0.000867732 -1.79281e-05 0.000163824 -1.59045e-05 0.000165538 0.000163824 0.000867732 0.000165538 0.00079333 0.000673947 0.00121633 0.000723637 0.00104694 0.00121633 0.00175872 0.00104694 0.00159489 0.000723637 0.00104694 0.000759007 0.000911215 0.00104694 0.00159489 0.000911215 0.00143106 0.000759007 0.000911215 0.000741878 0.0010287 0.000911215 0.00143106 0.0010287 0.00158542 0.000741878 0.0010287 0.000737358 0.00123857 0.0010287 0.00158542 0.00123857 0.00173979 0.000447904 0.000856652 0.000362998 0.000964584 0.000856652 0.00107754 0.000964584 0.000525446 0.000362998 0.000964584 0.000278092 0.000987806 0.000964584 0.000525446 0.000987806 0.000208031 0.00107754 0.00115147 0.000525446 0.000990644 0.00115147 0.0012254 0.000990644 0.000890644 0.00052544