# vtk DataFile Version 3.0
#This file was generated by the deal.II library on 2023/2/24 at 23:59:43
ASCII
DATASET UNSTRUCTURED_GRID

FIELD FieldData 2
CYCLE 1 1 int
5
TIME 1 1 double
0.01
POINTS 9040 double
0 0 2
-0.765367 1.22465e-16 1.84776
1.27126e-16 0.382683 2.07612
-0.794497 0.382683 1.91809
-0.765367 1.22465e-16 1.84776
-1.41421 1.22465e-16 1.41421
-0.794497 0.382683 1.91809
-1.46804 0.382683 1.46804
1.27126e-16 0.382683 2.07612
-0.794497 0.382683 1.91809
1.40399e-16 0.707107 2.29289
-0.877452 0.707107 2.11836
-0.794497 0.382683 1.91809
-1.46804 0.382683 1.46804
-0.877452 0.707107 2.11836
-1.62132 0.707107 1.62132
-1.41421 1.22465e-16 1.41421
-1.84776 1.22465e-16 0.765367
-1.46804 0.382683 1.46804
-1.91809 0.382683 0.794497
-1.84776 1.22465e-16 0.765367
-2 0 0
-1.91809 0.382683 0.794497
-2.07612 0.382683 2.54251e-16
-1.46804 0.382683 1.46804
-1.91809 0.382683 0.794497
-1.62132 0.707107 1.62132
-2.11836 0.707107 0.877452
-1.91809 0.382683 0.794497
-2.07612 0.382683 2.54251e-16
-2.11836 0.707107 0.877452
-2.29289 0.707107 2.80798e-16
1.40399e-16 0.707107 2.29289
-0.877452 0.707107 2.11836
1.60264e-16 0.92388 2.61732
-1.0016 0.92388 2.41809
-0.877452 0.707107 2.11836
-1.62132 0.707107 1.62132
-1.0016 0.92388 2.41809
-1.85072 0.92388 1.85072
-1.0016 0.92388 2.41809
-1.85072 0.92388 1.85072
-1.14805 1 2.77164
-2.12132 1 2.12132
-1.62132 0.707107 1.62132
-2.11836 0.707107 0.877452
-1.85072 0.92388 1.85072
-2.41809 0.92388 1.0016
-2.11836 0.707107 0.877452
-2.29289 0.707107 2.80798e-16
-2.41809 0.92388 1.0016
-2.61732 0.92388 3.20529e-16
-1.85072 0.92388 1.85072
-2.41809 0.92388 1.0016
-2.12132 1 2.12132
-2.77164 1 1.14805
-2.41809 0.92388 1.0016
-2.61732 0.92388 3.20529e-16
-2.77164 1 1.14805
-3 1 0
-1.14805 -1 2.77164
-2.12132 -1 2.12132
-1.0016 -0.92388 2.41809
-1.85072 -0.92388 1.85072
1.60264e-16 -0.92388 2.61732
-1.0016 -0.92388 2.41809
1.40399e-16 -0.707107 2.29289
-0.877452 -0.707107 2.11836
-1.0016 -0.92388 2.41809
-1.85072 -0.92388 1.85072
-0.877452 -0.707107 2.11836
-1.62132 -0.707107 1.62132
-2.12132 -1 2.12132
-2.77164 -1 1.14805
-1.85072 -0.92388 1.85072
-2.41809 -0.92388 1.0016
-2.77164 -1 1.14805
-3 -1 0
-2.41809 -0.92388 1.0016
-2.61732 -0.92388 3.20529e-16
-1.85072 -0.92388 1.85072
-2.41809 -0.92388 1.0016
-1.62132 -0.707107 1.62132
-2.11836 -0.707107 0.877452
-2.41809 -0.92388 1.0016
-2.61732 -0.92388 3.20529e-16
-2.11836 -0.707107 0.877452
-2.29289 -0.707107 2.80798e-16
1.40399e-16 -0.707107 2.29289
-0.877452 -0.707107 2.11836
1.27126e-16 -0.382683 2.07612
-0.794497 -0.382683 1.91809
-0.877452 -0.707107 2.11836
-1.62132 -0.707107 1.62132
-0.794497 -0.382683 1.91809
-1.46804 -0.382683 1.46804
1.27126e-16 -0.382683 2.07612
-0.794497 -0.382683 1.91809
0 0 2
-0.765367 1.22465e-16 1.84776
-0.794497 -0.382683 1.91809
-1.46804 -0.382683 1.46804
-0.765367 1.22465e-16 1.84776
-1.41421 1.22465e-16 1.41421
-1.62132 -0.707107 1.62132
-2.11836 -0.707107 0.877452
-1.46804 -0.382683 1.46804
-1.91809 -0.382683 0.794497
-2.11836 -0.707107 0.877452
-2.29289 -0.707107 2.80798e-16
-1.91809 -0.382683 0.794497
-2.07612 -0.382683 2.54251e-16
-1.46804 -0.382683 1.46804
-1.91809 -0.382683 0.794497
-1.41421 1.22465e-16 1.41421
-1.84776 1.22465e-16 0.765367
-1.91809 -0.382683 0.794497
-2.07612 -0.382683 2.54251e-16
-1.84776 1.22465e-16 0.765367
-2 0 0
-1.53073 0 3.69552
-2.82843 0 2.82843
-1.5016 -0.382683 3.62519
-2.7746 -0.382683 2.7746
-1.5016 -0.382683 3.62519
-2.7746 -0.382683 2.7746
-1.41865 -0.707107 3.42492
-2.62132 -0.707107 2.62132
-2.82843 0 2.82843
-3.69552 0 1.53073
-2.7746 -0.382683 2.7746
-3.62519 -0.382683 1.5016
-3.69552 0 1.53073
-4 0 0
-3.62519 -0.382683 1.5016
-3.92388 -0.382683 4.80537e-16
-2.7746 -0.382683 2.7746
-3.62519 -0.382683 1.5016
-2.62132 -0.707107 2.62132
-3.42492 -0.707107 1.41865
-3.62519 -0.382683 1.5016
-3.92388 -0.382683 4.80537e-16
-3.42492 -0.707107 1.41865
-3.70711 -0.707107 4.5399e-16
-1.41865 -0.707107 3.42492
-2.62132 -0.707107 2.62132
-1.2945 -0.92388 3.12519
-2.39192 -0.92388 2.39192
-1.2945 -0.92388 3.12519
-2.39192 -0.92388 2.39192
-1.14805 -1 2.77164
-2.12132 -1 2.12132
-2.62132 -0.707107 2.62132
-3.42492 -0.707107 1.41865
-2.39192 -0.92388 2.39192
-3.12519 -0.92388 1.2945
-3.42492 -0.707107 1.41865
-3.70711 -0.707107 4.5399e-16
-3.12519 -0.92388 1.2945
-3.38268 -0.92388 4.14259e-16
-2.39192 -0.92388 2.39192
-3.12519 -0.92388 1.2945
-2.12132 -1 2.12132
-2.77164 -1 1.14805
-3.12519 -0.92388 1.2945
-3.38268 -0.92388 4.14259e-16
-2.77164 -1 1.14805
-3 -1 0
-1.14805 1 2.77164
-2.12132 1 2.12132
-1.2945 0.92388 3.12519
-2.39192 0.92388 2.39192
-1.2945 0.92388 3.12519
-2.39192 0.92388 2.39192
-1.41865 0.707107 3.42492
-2.62132 0.707107 2.62132
-2.12132 1 2.12132
-2.77164 1 1.14805
-2.39192 0.92388 2.39192
-3.12519 0.92388 1.2945
-2.77164 1 1.14805
-3 1 0
-3.12519 0.92388 1.2945
-3.38268 0.92388 4.14259e-16
-2.39192 0.92388 2.39192
-3.12519 0.92388 1.2945
-2.62132 0.707107 2.62132
-3.42492 0.707107 1.41865
-3.12519 0.92388 1.2945
-3.38268 0.92388 4.14259e-16
-3.42492 0.707107 1.41865
-3.70711 0.707107 4.5399e-16
-1.41865 0.707107 3.42492
-2.62132 0.707107 2.62132
-1.5016 0.382683 3.62519
-2.7746 0.382683 2.7746
-1.5016 0.382683 3.62519
-2.7746 0.382683 2.7746
-1.53073 0 3.69552
-2.82843 0 2.82843
-2.62132 0.707107 2.62132
-3.42492 0.707107 1.41865
-2.7746 0.382683 2.7746
-3.62519 0.382683 1.5016
-3.42492 0.707107 1.41865
-3.70711 0.707107 4.5399e-16
-3.62519 0.382683 1.5016
-3.92388 0.382683 4.80537e-16
-2.7746 0.382683 2.7746
-3.62519 0.382683 1.5016
-2.82843 0 2.82843
-3.69552 0 1.53073
-3.62519 0.382683 1.5016
-3.92388 0.382683 4.80537e-16
-3.69552 0 1.53073
-4 0 0
-2 0 0
-1.84776 1.22465e-16 -0.765367
-2.07612 0.382683 2.54251e-16
-1.91809 0.382683 -0.794497
-1.84776 1.22465e-16 -0.765367
-1.41421 1.22465e-16 -1.41421
-1.91809 0.382683 -0.794497
-1.46804 0.382683 -1.46804
-2.07612 0.382683 2.54251e-16
-1.91809 0.382683 -0.794497
-2.29289 0.707107 2.80798e-16
-2.11836 0.707107 -0.877452
-1.91809 0.382683 -0.794497
-1.46804 0.382683 -1.46804
-2.11836 0.707107 -0.877452
-1.62132 0.707107 -1.62132
-1.41421 1.22465e-16 -1.41421
-0.765367 1.22465e-16 -1.84776
-1.46804 0.382683 -1.46804
-0.794497 0.382683 -1.91809
-0.765367 1.22465e-16 -1.84776
0 0 -2
-0.794497 0.382683 -1.91809
-3.81377e-16 0.382683 -2.07612
-1.46804 0.382683 -1.46804
-0.794497 0.382683 -1.91809
-1.62132 0.707107 -1.62132
-0.877452 0.707107 -2.11836
-0.794497 0.382683 -1.91809
-3.81377e-16 0.382683 -2.07612
-0.877452 0.707107 -2.11836
-4.21198e-16 0.707107 -2.29289
-2.29289 0.707107 2.80798e-16
-2.11836 0.707107 -0.877452
-2.61732 0.92388 3.20529e-16
-2.41809 0.92388 -1.0016
-2.11836 0.707107 -0.877452
-1.62132 0.707107 -1.62132
-2.41809 0.92388 -1.0016
-1.85072 0.92388 -1.85072
-2.61732 0.92388 3.20529e-16
-2.41809 0.92388 -1.0016
-3 1 0
-2.77164 1 -1.14805
-2.41809 0.92388 -1.0016
-1.85072 0.92388 -1.85072
-2.77164 1 -1.14805
-2.12132 1 -2.12132
-1.62132 0.707107 -1.62132
-0.877452 0.707107 -2.11836
-1.85072 0.92388 -1.85072
-1.0016 0.92388 -2.41809
-0.877452 0.707107 -2.11836
-4.21198e-16 0.707107 -2.29289
-1.0016 0.92388 -2.41809
-4.80793e-16 0.92388 -2.61732
-1.85072 0.92388 -1.85072
-1.0016 0.92388 -2.41809
-2.12132 1 -2.12132
-1.14805 1 -2.77164
-1.0016 0.92388 -2.41809
-4.80793e-16 0.92388 -2.61732
-1.14805 1 -2.77164
0 1 -3
-3 -1 0
-2.77164 -1 -1.14805
-2.61732 -0.92388 3.20529e-16
-2.41809 -0.92388 -1.0016
-2.77164 -1 -1.14805
-2.12132 -1 -2.12132
-2.41809 -0.92388 -1.0016
-1.85072 -0.92388 -1.85072
-2.61732 -0.92388 3.20529e-16
-2.41809 -0.92388 -1.0016
-2.29289 -0.707107 2.80798e-16
-2.11836 -0.707107 -0.877452
-2.41809 -0.92388 -1.0016
-1.85072 -0.92388 -1.85072
-2.11836 -0.707107 -0.877452
-1.62132 -0.707107 -1.62132
-2.12132 -1 -2.12132
-1.14805 -1 -2.77164
-1.85072 -0.92388 -1.85072
-1.0016 -0.92388 -2.41809
-1.14805 -1 -2.77164
0 -1 -3
-1.0016 -0.92388 -2.41809
-4.80793e-16 -0.92388 -2.61732
-1.85072 -0.92388 -1.85072
-1.0016 -0.92388 -2.41809
-1.62132 -0.707107 -1.62132
-0.877452 -0.707107 -2.11836
-1.0016 -0.92388 -2.41809
-4.80793e-16 -0.92388 -2.61732
-0.877452 -0.707107 -2.11836
-4.21198e-16 -0.707107 -2.29289
-2.29289 -0.707107 2.80798e-16
-2.11836 -0.707107 -0.877452
-2.07612 -0.382683 2.54251e-16
-1.91809 -0.382683 -0.794497
-2.11836 -0.707107 -0.877452
-1.62132 -0.707107 -1.62132
-1.91809 -0.382683 -0.794497
-1.46804 -0.382683 -1.46804
-2.07612 -0.382683 2.54251e-16
-1.91809 -0.382683 -0.794497
-2 0 0
-1.84776 1.22465e-16 -0.765367
-1.91809 -0.382683 -0.794497
-1.46804 -0.382683 -1.46804
-1.84776 1.22465e-16 -0.765367
-1.41421 1.22465e-16 -1.41421
-1.62132 -0.707107 -1.62132
-0.877452 -0.707107 -2.11836
-1.46804 -0.382683 -1.46804
-0.794497 -0.382683 -1.91809
-0.877452 -0.707107 -2.11836
-4.21198e-16 -0.707107 -2.29289
-0.794497 -0.382683 -1.91809
-3.81377e-16 -0.382683 -2.07612
-1.46804 -0.382683 -1.46804
-0.794497 -0.382683 -1.91809
-1.41421 1.22465e-16 -1.41421
-0.765367 1.22465e-16 -1.84776
-0.794497 -0.382683 -1.91809
-3.81377e-16 -0.382683 -2.07612
-0.765367 1.22465e-16 -1.84776
0 0 -2
-4 0 0
-3.69552 0 -1.53073
-3.92388 -0.382683 4.80537e-16
-3.62519 -0.382683 -1.5016
-3.69552 0 -1.53073
-2.82843 0 -2.82843
-3.62519 -0.382683 -1.5016
-2.7746 -0.382683 -2.7746
-3.92388 -0.382683 4.80537e-16
-3.62519 -0.382683 -1.5016
-3.70711 -0.707107 4.5399e-16
-3.42492 -0.707107 -1.41865
-3.62519 -0.382683 -1.5016
-2.7746 -0.382683 -2.7746
-3.42492 -0.707107 -1.41865
-2.62132 -0.707107 -2.62132
-2.82843 0 -2.82843
-1.53073 0 -3.69552
-2.7746 -0.382683 -2.7746
-1.5016 -0.382683 -3.62519
-1.53073 0 -3.69552
0 0 -4
-1.5016 -0.382683 -3.62519
-7.20805e-16 -0.382683 -3.92388
-2.7746 -0.382683 -2.7746
-1.5016 -0.382683 -3.62519
-2.62132 -0.707107 -2.62132
-1.41865 -0.707107 -3.42492
-1.5016 -0.382683 -3.62519
-7.20805e-16 -0.382683 -3.92388
-1.41865 -0.707107 -3.42492
-6.80984e-16 -0.707107 -3.70711
-3.70711 -0.707107 4.5399e-16
-3.42492 -0.707107 -1.41865
-3.38268 -0.92388 4.14259e-16
-3.12519 -0.92388 -1.2945
-3.42492 -0.707107 -1.41865
-2.62132 -0.707107 -2.62132
-3.12519 -0.92388 -1.2945
[...]
POINT_DATA 9040
SCALARS U double 1
LOOKUP_TABLE default
1.34389e-07 -4.06445e-08 -1.39573e-06 3.77618e-07 -4.06445e-08 1.07127e-08 3.77618e-07 -9.92902e-08 -1.39573e-06 3.77618e-07 -6.29776e-07 1.29774e-07 3.77618e-07 -9.92902e-08 1.29774e-07 -3.33757e-08 1.07127e-08 -2.81408e-09 -9.92902e-08 2.60776e-08 -2.81408e-09 7.37864e-10 2.60776e-08 -6.86483e-09 -9.92902e-08 2.60776e-08 -3.33757e-08 8.57574e-09 2.60776e-08 -6.86483e-09 8.57574e-09 -2.20884e-09 -6.29776e-07 1.29774e-07 5.75206e-07 -4.85352e-08 1.29774e-07 -3.33757e-08 -4.85352e-08 1.41056e-08 -4.85352e-08 1.41056e-08 1.75873e-07 -4.58702e-08 -3.33757e-08 8.57574e-09 1.41056e-08 -4.06905e-09 8.57574e-09 -2.20884e-09 -4.06905e-09 1.17268e-09 1.41056e-08 -4.06905e-09 -4.58702e-08 1.19637e-08 -4.06905e-09 1.17268e-09 1.19637e-08 -3.13657e-09 1.7587e-07 -4.58652e-08 -4.85331e-08 1.4098e-08 5.75209e-07 -4.85331e-08 -6.29777e-07 1.29773e-07 -4.85331e-08 1.4098e-08 1.29773e-07 -3.3372e-08 -4.58652e-08 1.19613e-08 1.4098e-08 -4.04494e-09 1.19613e-08 -3.11535e-09 -4.04494e-09 1.09006e-09 1.4098e-08 -4.04494e-09 -3.3372e-08 8.57325e-09 -4.04494e-09 1.09006e-09 8.57325e-09 -2.18866e-09 -6.29777e-07 1.29773e-07 -1.39573e-06 3.77618e-07 1.29773e-07 -3.3372e-08 3.77618e-07 -9.92888e-08 -1.39573e-06 3.77618e-07 1.34389e-07 -4.06445e-08 3.77618e-07 -9.92888e-08 -4.06445e-08 1.07127e-08 -3.3372e-08 8.57325e-09 -9.92888e-08 2.60734e-08 8.57325e-09 -2.18866e-09 2.60734e-08 -6.86861e-09 -9.92888e-08 2.60734e-08 1.07127e-08 -2.81408e-09 2.60734e-08 -6.86861e-09 -2.81408e-09 7.37864e-10 1.85569e-07 -5.18716e-08 -9.53557e-08 2.48285e-08 -9.53557e-08 2.48285e-08 -7.2795e-08 1.7972e-08 -5.18716e-08 1.44724e-08 2.48285e-08 -6.45885e-09 1.44724e-08 -4.04973e-09 -6.45885e-09 1.6888e-09 2.48285e-08 -6.45885e-09 1.7972e-08 -4.41315e-09 -6.45885e-09 1.6888e-09 -4.41315e-09 1.07877e-09 -7.2795e-08 1.7972e-08 -4.22508e-07 1.06911e-07 -4.22508e-07 1.06911e-07 1.7587e-07 -4.58652e-08 1.7972e-08 -4.41315e-09 1.06911e-07 -2.70057e-08 -4.41315e-09 1.07877e-09 -2.70057e-08 6.82839e-09 1.06911e-07 -2.70057e-08 -4.58652e-08 1.19613e-08 -2.70057e-08 6.82839e-09 1.19613e-08 -3.11535e-09 1.75873e-07 -4.58702e-08 -4.22504e-07 1.06903e-07 -4.22504e-07 1.06903e-07 -7.27937e-08 1.79745e-08 -4.58702e-08 1.19637e-08 1.06903e-07 -2.6997e-08 1.19637e-08 -3.13657e-09 -2.6997e-08 6.82668e-09 1.06903e-07 -2.6997e-08 1.79745e-08 -4.41034e-09 -2.6997e-08 6.82668e-09 -4.41034e-09 1.07924e-09 -7.27937e-08 1.79745e-08 -9.53579e-08 2.48311e-08 -9.53579e-08 2.48311e-08 1.85569e-07 -5.18716e-08 1.79745e-08 -4.41034e-09 2.48311e-08 -6.46846e-09 -4.41034e-09 1.07924e-09 -6.46846e-09 1.6913e-09 2.48311e-08 -6.46846e-09 -5.18716e-08 1.44724e-08 -6.46846e-09 1.6913e-09 1.44724e-08 -4.04973e-09 7.37864e-10 -2.07317e-10 -6.86483e-09 1.90919e-09 -2.07317e-10 1.14041e-10 1.90919e-09 -9.36349e-10 -6.86483e-09 1.90919e-09 -2.20884e-09 6.01529e-10 1.90919e-09 -9.36349e-10 6.01529e-10 -2.88992e-10 1.14041e-10 -2.57576e-10 -9.36349e-10 1.92008e-09 -2.57576e-10 9.33301e-10 1.92008e-09 -6.89974e-09 -9.36349e-10 1.92008e-09 -2.88992e-10 6.00167e-10 1.92008e-09 -6.89974e-09 6.00167e-10 -2.20571e-09 -2.20884e-09 6.01529e-10 1.17268e-09 -3.57972e-10 6.01529e-10 -2.88992e-10 -3.57972e-10 1.88316e-10 1.17268e-09 -3.57972e-10 -3.13657e-09 8.69567e-10 -3.57972e-10 1.88316e-10 8.69567e-10 -4.24938e-10 -2.88992e-10 6.00167e-10 1.88316e-10 -3.57263e-10 6.00167e-10 -2.20571e-09 -3.57263e-10 1.16963e-09 1.88316e-10 -3.57263e-10 -4.24938e-10 8.68948e-10 -3.57263e-10 1.16963e-09 8.68948e-10 -3.13353e-09 -3.11535e-09 7.92828e-10 1.09006e-09 -2.61235e-11 7.92828e-10 -1.27592e-10 -2.61235e-11 -1.16343e-09 1.09006e-09 -2.61235e-11 -2.18866e-09 5.132e-10 -2.61235e-11 -1.16343e-09 5.132e-10 5.4109e-11 -1.27592e-10 -2.89898e-10 -1.16343e-09 5.12552e-09 -2.89898e-10 1.39289e-09 5.12552e-09 -2.10068e-08 -1.16343e-09 5.12552e-09 5.4109e-11 -7.28352e-10 5.12552e-09 -2.10068e-08 -7.28352e-10 2.93854e-09 -2.18866e-09 5.132e-10 -6.86861e-09 1.92911e-09 5.132e-10 5.4109e-11 1.92911e-09 -1.00533e-09 -6.86861e-09 1.92911e-09 7.37864e-10 -2.07317e-10 1.92911e-09 -1.00533e-09 -2.07317e-10 1.14041e-10 5.4109e-11 -7.28352e-10 -1.00533e-09 2.17761e-09 -7.28352e-10 2.93854e-09 2.17761e-09 -7.8818e-09 -1.00533e-09 2.17761e-09 1.14041e-10 -2.57576e-10 2.17761e-09 -7.8818e-09 -2.57576e-10 9.33301e-10 -4.04973e-09 1.20367e-09 1.6888e-09 -4.67506e-10 1.20367e-09 -6.19328e-10 -4.67506e-10 2.27755e-10 1.6888e-09 -4.67506e-10 1.07877e-09 -2.75911e-10 -4.67506e-10 2.27755e-10 -2.75911e-10 1.29059e-10 -6.19328e-10 1.20283e-09 2.27755e-10 -4.67536e-10 1.20283e-09 -4.04969e-09 -4.67536e-10 1.69364e-09 2.27755e-10 -4.67536e-10 1.29059e-10 -2.91244e-10 -4.67536e-10 1.69364e-09 -2.91244e-10 1.13738e-09 1.07877e-09 -2.75911e-10 6.82839e-09 -1.80713e-09 -2.75911e-10 1.29059e-10 -1.80713e-09 8.15249e-10 6.82839e-09 -1.80713e-09 -3.11535e-09 7.92828e-10 -1.80713e-09 8.15249e-10 7.92828e-10 -1.27592e-10 1.29059e-10 -2.91244e-10 8.15249e-10 -1.65401e-09 -2.91244e-10 1.13738e-09 -1.65401e-09 6.20404e-09 8.15249e-10 -1.65401e-09 -1.27592e-10 -2.89898e-10 -1.65401e-09 6.20404e-09 -2.89898e-10 1.39289e-09 -3.13657e-09 8.69567e-10 6.82668e-09 -1.81752e-09 8.69567e-10 -4.24938e-10 -1.81752e-09 8.5765e-10 6.82668e-09 -1.81752e-09 1.07924e-09 -2.75716e-10 -1.81752e-09 8.5765e-10 -2.75716e-10 1.24904e-10 -4.24938e-10 8.68948e-10 8.5765e-10 -1.81811e-09 8.68948e-10 -3.13353e-09 -1.81811e-09 6.8301e-09 8.5765e-10 -1.81811e-09 1.24904e-10 -2.74147e-10 -1.81811e-09 6.8301e-09 -2.74147e-10 1.07826e-09 1.07924e-09 -2.75716e-10 1.6913e-09 -4.67107e-10 -2.75716e-10 1.24904e-10 -4.67107e-10 2.27375e-10 1.6913e-09 -4.67107e-10 -4.04973e-09 1.20367e-09 -4.67107e-10 2.27375e-10 1.20367e-09 -6.19328e-10 1.24904e-10 -2.74147e-10 2.27375e-10 -4.6819e-10 -2.74147e-10 1.07826e-09 -4.6819e-10 1.69282e-09 2.27375e-10 -4.6819e-10 -6.19328e-10 1.20283e-09 -4.6819e-10 1.69282e-09 1.20283e-09 -4.04969e-09 9.33301e-10 -3.52863e-09 -6.89974e-09 2.61988e-08 -3.52863e-09 1.33448e-08 2.61988e-08 -9.97245e-08 -6.89974e-09 2.61988e-08 -2.20571e-09 8.55838e-09 2.61988e-08 -9.97245e-08 8.55838e-09 -3.331e-08 1.33448e-08 -5.03169e-08 -9.97245e-08 3.79113e-07 -5.03169e-08 1.67064e-07 3.79113e-07 -1.39929e-06 -9.97245e-08 3.79113e-07 -3.331e-08 1.29586e-07 3.79113e-07 -1.39929e-06 1.29586e-07 -6.29777e-07 -2.20571e-09 8.55838e-09 1.16963e-09 -4.06235e-09 8.55838e-09 -3.331e-08 -4.06235e-09 1.40942e-08 1.16963e-09 -4.06235e-09 -3.13353e-09 1.19649e-08 -4.06235e-09 1.40942e-08 1.19649e-08 -4.58719e-08 -3.331e-08 1.29586e-07 1.40942e-08 -4.8526e-08 1.29586e-07 -6.29777e-07 -4.8526e-08 5.75416e-07 1.40942e-08 -4.8526e-08 -4.58719e-08 1.75882e-07 1.39289e-09 -5.71167e-09 -2.10068e-08 8.53609e-08 -5.71167e-09 2.31259e-08 8.53609e-08 -3.45494e-07 -2.10068e-08 8.53609e-08 2.93854e-09 -1.13531e-08 8.53609e-08 -3.45494e-07 -1.13531e-08 4.37369e-08 2.31259e-08 -9.3271e-08 -3.45494e-07 1.3938e-06 -3.45494e-07 1.3938e-06 4.37369e-08 -1.6845e-07 1.3938e-06 -5.99471e-06 -1.6845e-07 6.31103e-07 2.93854e-09 -1.13531e-08 -7.8818e-09 2.99495e-08 -1.13531e-08 4.37369e-08 2.99495e-08 -1.1405e-07 -7.8818e-09 2.99495e-08 9.33301e-10 -3.52863e-09 2.99495e-08 -1.1405e-07 -3.52863e-09 1.33448e-08 4.37369e-08 -1.6845e-07 -1.1405e-07 4.33816e-07 -1.6845e-07 6.31103e-07 4.33816e-07 -1.61593e-06 -1.1405e-07 4.33816e-07 1.33448e-08 -5.03169e-08 4.33816e-07 -1.61593e-06 -5.03169e-08 1.67064e-07 -4.04969e-09 1.44858e-08 1.69364e-09 -6.4871e-09 1.44858e-08 -5.19514e-08 -6.4871e-09 2.49296e-08 1.69364e-09 -6.4871e-09 1.13738e-09 -4.62089e-09 -6.4871e-09 2.49296e-08 -4.62089e-09 1.87237e-08 -5.19514e-08 1.85894e-07 2.49296e-08 -9.57992e-08 2.49296e-08 -9.57992e-08 1.87237e-08 -7.55131e-08 1.13738e-09 -4.62089e-09 6.20404e-09 -2.46117e-08 -4.62089e-09 1.87237e-08 -2.46117e-08 9.77643e-08 6.20404e-09 -2.46117e-08 1.39289e-09 -5.71167e-09 -2.46117e-08 9.77643e-08 -5.71167e-09 2.31259e-08 1.87237e-08 -7.55131e-08 9.77643e-08 -3.8757e-07 9.77643e-08 -3.8757e-07 2.31259e-08 -9.3271e-08 -3.13353e-09 1.19649e-08 6.8301e-09 -2.70052e-08 1.19649e-08 -4.58719e-08 -2.70052e-08 1.06912e-07 6.8301e-09 -2.70052e-08 1.07826e-09 -4.41015e-09 -2.70052e-08 1.06912e-07 -4.41015e-09 1.79568e-08 -4.58719e-08 1.75882e-07 1.06912e-07 -4.22518e-07 1.06912e-07 -4.22518e-07 1.79568e-08 -7.27522e-08 1.07826e-09 -4.41015e-09 1.69282e-09 -6.47252e-09 -4.41015e-09 1.79568e-08 -6.47252e-09 2.48605e-08 1.69282e-09 -6.47252e-09 -4.04969e-09 1.44858e-08 -6.47252e-09 2.48605e-08 1.44858e-08 -5.19514e-08 1.79568e-08 -7.27522e-08 2.48605e-08 -9.54822e-08 2.48605e-08 -9.54822e-08 -5.19514e-08 1.85894e-07 1.67064e-07 3.22677e-07 -6.16112e-07 2.78364e-06 -6.16112e-07 2.78364e-06 -1.39929e-06 5.78908e-06 -1.39929e-06 5.78908e-06 -1.01453e-06 1.05974e-05 -1.01453e-06 1.05974e-05 -6.29777e-07 1.16608e-06 3.26488e-07 1.34389e-07 2.78536e-06 -6.30669e-07 2.78536e-06 -6.30669e-07 5.7885e-06 -1.39573e-06 5.7885e-06 -1.39573e-06 1.05973e-05 -1.01275e-06 1.05973e-05 -1.01275e-06 1.16601e-06 -6.29776e-07 -6.29777e-07 1.16608e-06 -2.71805e-08 9.52389e-07 -2.71805e-08 9.52389e-07 5.75416e-07 -3.08596e-06 0.010044 0.00997939 0.0100047 0.00999768 0.0100047 0.00999768 0.00999852 0.0100007 0.00999852 0.0100007 0.00998977 0.0100049 0.00997939 0.010044 0.00999768 0.0100047 1.16601e-06 -6.29776e-07 9.52339e-07 -2.72852e-08 9.52339e-07 -2.72852e-08 -3.08588e-06 5.75206e-07 0.00999768 0.0100047 0.0100007 0.00999852 0.0100007 0.00999852 0.0100049 0.00998977 0.00998978 0.0100049 0.00999885 0.0100005 0.00999885 0.0100005 0.0100051 0.00999774 0.0100049 0.00998977 0.0100005 0.00999855 0.0100005 0.00999855 0.00999774 0.0100047 0.00999774 0.0100047 0.00998695 0.0100416 -3.08588e-06 5.75209e-07 9.52333e-07 -2.7284e-08 9.52333e-07 -2.7284e-08 1.16602e-06 -6.29777e-07 6.31103e-07 -2.36438e-06 -4.92416e-07 1.07055e-05 -4.92416e-07 1.07055e-05 -1.61593e-06 5.8671e-06 -1.61593e-06 5.8671e-06 -7.24435e-07 2.78565e-06 -7.24435e-07 2.78565e-06 1.67064e-07 3.22677e-07 1.16602e-06 -6.29777e-07 1.05973e-05 -1.01275e-06 1.05973e-05 -1.01275e-06 5.78851e-06 -1.39573e-06 5.78851e-06 -1.39573e-06 2.78536e-06 -6.30669e-07 2.78536e-06 -6.30669e-07 3.26488e-07 1.34389e-07 0.00999977 0.0100001 0.0099998 0.0100001 0.0099998 0.0100001 0.00999986 0.0100002 0.0100001 0.00999977 0.0100001 0.0099998 0.0100001 0.0099998 0.0100002 0.00999986 0.0100134 0.00999436 0.00999535 0.0100025 0.00999535 0.0100025 0.00998978 0.0100049 5.75416e-07 -3.08596e-06 5.99306e-06 -2.54462e-05 -3.08588e-06 5.75206e-07 -2.54462e-05 5.99316e-06 0.00999986 0.0100002 0.0099998 0.0100001 0.0099998 0.0100001 0.00999977 0.0100001 0.0100002 0.00999986 0.0100001 0.0099998 0.0100001 0.0099998 0.0100001 0.00999977 -5.99471e-06 4.30528e-05 -2.68181e-06 9.22835e-06 -2.68181e-06 9.22835e-06 6.31103e-07 -2.36438e-06 -2.54462e-05 5.99316e-06 -3.08588e-06 5.75209e-07 0.00999948 0.0100002 0.00999953 0.0100002 0.00999953 0.0100002 0.00999977 0.0100001 0.0100002 0.00999948 0.0100002 0.00999953 0.0100002 0.00999953 0.0100001 0.00999977 0.00999986 0.0100002 0.0100141 0.00999392 0.0100141 0.00999392 0.0100134 0.00999436 0.0100002 0.00999986 0.00999392 0.0100141 0.00999392 0.0100141 0.00999436 0.0100135 0.0100135 0.00999434 0.0100141 0.00999392 0.0100141 0.00999392 0.00999986 0.0100002 0.00999434 0.0100135 0.00999392 0.0100141 0.00999392 0.0100141 0.0100002 0.00999986 0.00999977 0.0100001 0.00999953 0.0100002 0.00999953 0.0100002 0.00999948 0.0100002 0.0100001 0.00999977 0.0100002 0.00999953 0.0100002 0.00999953 0.0100002 0.00999948 -2.21283e-06 5.21229e-07 -1.63365e-06 3.84083e-07 5.21229e-07 -9.53557e-08 3.84083e-07 -8.40753e-08 -1.63365e-06 3.84083e-07 9.27041e-07 -2.84176e-07 3.84083e-07 -8.40753e-08 -2.84176e-07 -7.2795e-08 9.27041e-07 -2.84176e-07 -1.62676e-05 3.61034e-06 -2.84176e-07 -7.2795e-08 3.61034e-06 -2.47652e-07 -1.62676e-05 3.61034e-06 -1.02238e-05 2.20339e-06 3.61034e-06 -2.47652e-07 2.20339e-06 -4.22508e-07 -1.02238e-05 2.20338e-06 -1.62676e-05 3.61033e-06 2.20338e-06 -4.22504e-07 3.61033e-06 -2.47649e-07 -1.62676e-05 3.61033e-06 9.27028e-07 -2.84191e-07 3.61033e-06 -2.47649e-07 -2.84191e-07 -7.27937e-08 9.27028e-07 -2.84191e-07 -1.63366e-06 3.84094e-07 -2.84191e-07 -7.27937e-08 3.84094e-07 -8.40758e-08 -1.63366e-06 3.84094e-07 -2.21283e-06 5.21239e-07 3.84094e-07 -8.40758e-08 5.21239e-07 -9.53579e-08 -9.57992e-08 5.21388e-07 -8.56562e-08 3.84343e-07 5.21388e-07 -2.21299e-06 3.84343e-07 -1.63335e-06 -8.56562e-08 3.84343e-07 -7.55131e-08 -2.83777e-07 3.84343e-07 -1.63335e-06 -2.83777e-07 9.26289e-07 -7.55131e-08 -2.83777e-07 -2.31541e-07 3.60819e-06 -2.83777e-07 9.26289e-07 3.60819e-06 -1.62684e-05 -2.31541e-07 3.60819e-06 -3.8757e-07 2.1887e-06 3.60819e-06 -1.62684e-05 2.1887e-06 -1.01924e-05 -4.22518e-07 2.20338e-06 -2.47635e-07 3.61034e-06 2.20338e-06 -1.02238e-05 3.61034e-06 -1.62676e-05 -2.47635e-07 3.61034e-06 -7.27522e-08 -2.84194e-07 3.61034e-06 -1.62676e-05 -2.84194e-07 9.27041e-07 -7.27522e-08 -2.84194e-07 -8.41172e-08 3.84113e-07 -2.84194e-07 9.27041e-07 3.84113e-07 -1.63366e-06 -8.41172e-08 3.84113e-07 -9.54822e-08 5.21267e-07 3.84113e-07 -1.63366e-06 5.21267e-07 -2.21284e-06 0.00999436 0.0100135 0.0100025 0.00999499 0.0100025 0.00999499 0.0100049 0.00998977 0.00998977 0.0100049 0.00999495 0.0100026 0.00999495 0.0100026 0.0100135 0.00999434 0.0100049 0.00998977 0.0100026 0.00999495 0.0100026 0.00999495 0.00999434 0.0100135 5.75206e-07 2.63335e-07 5.99316e-06 -1.6066e-06 2.63335e-07 -4.85352e-08 -1.6066e-06 6.36688e-08 5.99316e-06 -1.6066e-06 -1.41158e-06 3.60446e-07 -1.6066e-06 6.36688e-08 3.60446e-07 1.75873e-07 -1.41159e-06 3.60422e-07 5.99316e-06 -1.6066e-06 3.60422e-07 1.7587e-07 -1.6066e-06 6.36687e-08 5.99316e-06 -1.6066e-06 5.75209e-07 2.63338e-07 -1.6066e-06 6.36687e-08 2.63338e-07 -4.85331e-08 3.13019e-06 -9.8957e-07 -5.98956e-07 -2.07075e-09 -9.8957e-07 1.85569e-07 -2.07075e-09 4.51065e-08 -5.98956e-07 -2.07075e-09 -2.21283e-06 5.21229e-07 -2.07075e-09 4.51065e-08 5.21229e-07 -9.53557e-08 -2.21283e-06 5.21239e-07 -5.98943e-07 -2.10578e-09 5.21239e-07 -9.53579e-08 -2.10578e-09 4.51054e-08 -5.98943e-07 -2.10578e-09 3.13019e-06 -9.8957e-07 -2.10578e-09 4.51054e-08 -9.8957e-07 1.85569e-07 -1.02238e-05 2.20339e-06 2.48816e-06 -6.11245e-07 2.20339e-06 -4.22508e-07 -6.11245e-07 -1.23319e-07 2.48816e-06 -6.11245e-07 -1.41159e-06 3.60422e-07 -6.11245e-07 -1.23319e-07 3.60422e-07 1.7587e-07 1.85894e-07 -9.89669e-07 4.50472e-08 -2.04116e-09 -9.89669e-07 3.13021e-06 -2.04116e-09 -5.98962e-07 4.50472e-08 -2.04116e-09 -9.57992e-08 5.21388e-07 -2.04116e-09 -5.98962e-07 5.21388e-07 -2.21299e-06 -9.54822e-08 5.21267e-07 4.52057e-08 -2.1166e-09 5.21267e-07 -2.21284e-06 -2.1166e-09 -5.98946e-07 4.52057e-08 -2.1166e-09 1.85894e-07 -9.89669e-07 -2.1166e-09 -5.98946e-07 -9.89669e-07 3.13021e-06 -1.41158e-06 3.60446e-07 2.48816e-06 -6.11229e-07 3.60446e-07 1.75873e-07 -6.11229e-07 -1.23315e-07 2.48816e-06 -6.11229e-07 -1.02238e-05 2.20338e-06 -6.11229e-07 -1.23315e-07 2.20338e-06 -4.22504e-07 -4.8526e-08 2.63445e-07 6.36781e-08 -1.60664e-06 2.63445e-07 5.75416e-07 -1.60664e-06 5.99306e-06 6.36781e-08 -1.60664e-06 1.75882e-07 3.60432e-07 -1.60664e-06 5.99306e-06 3.60432e-07 -1.41157e-06 -9.3271e-08 2.32737e-07 6.50262e-07 -4.57695e-07 2.32737e-07 -6.10574e-08 -4.57695e-07 -6.73668e-07 6.50262e-07 -4.57695e-07 1.3938e-06 -2.30046e-06 -4.57695e-07 -6.73668e-07 -2.30046e-06 -5.99471e-06 -3.8757e-07 2.1887e-06 -2.4042e-07 -5.51764e-07 2.1887e-06 -1.01924e-05 -5.51764e-07 2.25285e-06 -2.4042e-07 -5.51764e-07 -9.3271e-08 2.32737e-07 -5.51764e-07 2.25285e-06 2.32737e-07 -6.10574e-08 1.75882e-07 3.60432e-07 -1.23318e-07 -6.11263e-07 3.60432e-07 -1.41157e-06 -6.11263e-07 2.48817e-06 -1.23318e-07 -6.11263e-07 -4.22518e-07 2.20338e-06 -6.11263e-07 2.48817e-06 2.20338e-06 -1.02238e-05 -9.44542e-05 0.00256813 -0.000181112 0.00391912 1.05974e-05 -7.24801e-05 5.88172e-06 -7.19942e-05 -7.24801e-05 0.000284265 -7.19942e-05 0.000465544 5.88172e-06 -7.19942e-05 1.16608e-06 -5.76931e-06 -0.000181112 0.00391912 -0.000205586 0.00502013 0.00391912 0.010049 0.00502013 0.0101926 0.00256813 -9.44543e-05 0.00391912 -0.000181112 0.010049 0.00391912 0.0101926 0.00502013 0.00391912 -0.000181112 0.00502013 -0.000205586 0.000284265 -7.24803e-05 0.000465544 -7.19943e-05 -7.24803e-05 1.05973e-05 -7.19943e-05 5.88167e-06 -7.19943e-05 5.88167e-06 -5.76929e-06 1.16601e-06 1.16608e-06 -5.76931e-06 1.05924e-06 -8.75407e-06 1.05924e-06 -8.75407e-06 9.52389e-07 -9.01366e-06 9.52389e-07 -9.01366e-06 -1.06678e-06 -4.62415e-06 -1.06678e-06 -4.62415e-06 -3.08596e-06 1.79692e-05 0.00964904 0.010044 0.00986222 0.0100244 0.00986222 0.0100244 0.00996386 0.0100047 0.010044 0.00964904 0.0100244 0.00986222 0.0100244 0.00986222 0.0100047 0.00996386 -5.76929e-06 1.16601e-06 -8.754e-06 1.05918e-06 -8.754e-06 1.05918e-06 -9.01363e-06 9.52339e-07 -9.01363e-06 9.52339e-07 -4.62414e-06 -1.06677e-06 -4.62414e-06 -1.06677e-06 1.79692e-05 -3.08588e-06 0.0093012 0.0100914 0.00873252 0.010134 0.0100047 0.00996384 0.0100232 0.00986247 0.0100232 0.00986247 0.0100416 0.00964961 1.79692e-05 -3.08588e-06 -4.62412e-06 -1.06677e-06 -4.62412e-06 -1.06677e-06 -9.01364e-06 9.52333e-07 -9.01364e-06 9.52333e-07 -8.75401e-06 1.05918e-06 -8.75401e-06 1.05918e-06 -5.76926e-06 1.16602e-06 -0.000205577 0.00502017 -0.000181115 0.00391912 0.00502017 0.0101924 0.00391912 0.010049 -0.000181115 0.00391912 -9.44539e-05 0.00256813 0.0101926 0.00502013 0.010049 0.00391912 0.00502013 -0.000205586 0.00391912 -0.000181112 -5.76926e-06 1.16602e-06 -7.19942e-05 5.88167e-06 0.000465544 -7.19942e-05 0.000284265 -7.24803e-05 -7.19942e-05 5.88167e-06 -7.24803e-05 1.05973e-05 0.00391912 -0.000181112 0.00256813 -9.44543e-05 -2.21299e-06 1.33008e-05 -1.92317e-06 1.87003e-05 -1.92317e-06 1.87003e-05 -1.63335e-06 1.83755e-05 1.87003e-05 -0.000107043 1.83755e-05 -0.000108027 -1.63335e-06 1.83755e-05 -3.53531e-07 1.37475e-05 1.83755e-05 -0.000108027 1.37475e-05 -8.62017e-05 -3.53531e-07 1.37475e-05 9.26289e-07 1.34932e-05 1.37475e-05 -8.62017e-05 1.34932e-05 -9.74711e-05 0.0099955 0.0100005 0.00999808 0.0100005 0.0100005 0.0099998 0.0100005 0.00999983 0.00999808 0.0100005 0.0100382 0.00999795 0.0100005 0.00999983 0.00999795 0.00999986 0.0099998 0.0100005 0.00999983 0.0100005 0.0100005 0.0099955 0.0100005 0.00999808 0.00999983 0.0100005 0.00999986 0.00999795 0.0100005 0.00999808 0.00999795 0.0100382 1.33007e-05 -2.21283e-06 1.87003e-05 -1.92324e-06 -0.000107043 1.87003e-05 -0.000108027 1.83756e-05 1.87003e-05 -1.92324e-06 1.83756e-05 -1.63365e-06 -0.000108027 1.83756e-05 -8.62017e-05 1.37475e-05 1.83756e-05 -1.63365e-06 1.37475e-05 -3.53306e-07 -8.62017e-05 1.37475e-05 -9.74711e-05 1.3493e-05 1.37475e-05 -3.53306e-07 1.3493e-05 9.27041e-07 9.26289e-07 1.34932e-05 -7.67106e-06 1.89275e-05 -7.67106e-06 1.89275e-05 -1.62684e-05 0.000159609 1.89275e-05 -0.000190956 0.000159609 -0.000903524 0.00792897 0.0103518 0.0059955 0.0107051 3.22677e-07 -5.9023e-06 1.55316e-06 -7.6777e-06 -5.9023e-06 2.95983e-05 -7.6777e-06 3.42928e-05 1.55316e-06 -7.6777e-06 2.78364e-06 -2.12041e-05 -7.6777e-06 3.42928e-05 -2.12041e-05 5.2662e-05 0.00926193 0.0100891 0.00932074 0.0100766 0.0100891 0.00998322 0.0100766 0.00998654 0.0100766 0.00998654 0.0100705 0.00998615 0.0100068 0.00999535 0.010033 0.00999257 0.00986332 0.010033 0.0096818 0.0100637 0.010033 0.00999257 0.0100637 0.00998978 0.0103518 0.00792897 0.0107051 0.0059955 1.3493e-05 9.27041e-07 1.89275e-05 -7.67027e-06 -0.000190956 1.89275e-05 -0.000903524 0.000159608 1.89275e-05 -7.67027e-06 0.000159608 -1.62676e-05 0.0094261 0.0100705 0.00954515 0.010094 0.0100705 0.00998615 0.010094 0.00996937 0.00954515 0.010094 0.010049 0.0100385 0.010094 0.00996937 0.0100385 0.00997981 5.78908e-06 -2.27814e-05 8.19322e-06 -9.78561e-06 -2.27814e-05 -0.000181112 -9.78561e-06 -0.000205586 8.19322e-06 -9.78561e-06 1.05974e-05 -7.24801e-05 -9.78561e-06 -0.000205586 -7.24801e-05 0.000284265 0.010049 0.0100385 0.0101926 0.0100168 0.0100385 0.00997981 0.0100168 0.00998486 0.0101926 0.0100168 0.00991472 0.0100463 0.0100168 0.00998486 0.0100463 0.0099783 0.00991472 0.0100463 0.00996978 0.01001