# vtk DataFile Version 3.0
#This file was generated by the deal.II library on 2023/2/27 at 0:39:13
ASCII
DATASET UNSTRUCTURED_GRID

FIELD FieldData 2
CYCLE 1 1 int
54
TIME 1 1 double
0.108
POINTS 9832 double
2.62132 -0.707107 2.62132
1.41865 -0.707107 3.42492
2.39192 -0.92388 2.39192
1.2945 -0.92388 3.12519
2.39192 0.92388 2.39192
1.2945 0.92388 3.12519
2.62132 0.707107 2.62132
1.41865 0.707107 3.42492
1.85072 -0.92388 1.85072
1.0016 -0.92388 2.41809
1.62132 -0.707107 1.62132
0.877452 -0.707107 2.11836
3.42492 -0.707107 1.41865
2.62132 -0.707107 2.62132
3.12519 -0.92388 1.2945
2.39192 -0.92388 2.39192
3.12519 -0.92388 1.2945
2.39192 -0.92388 2.39192
2.77164 -1 1.14805
2.12132 -1 2.12132
2.77164 1 1.14805
2.12132 1 2.12132
3.12519 0.92388 1.2945
2.39192 0.92388 2.39192
3.12519 0.92388 1.2945
2.39192 0.92388 2.39192
3.42492 0.707107 1.41865
2.62132 0.707107 2.62132
3.42492 0.707107 1.41865
2.62132 0.707107 2.62132
3.62519 0.382683 1.5016
2.7746 0.382683 2.7746
1.41421 1.22465e-16 1.41421
0.765367 1.22465e-16 1.84776
1.46804 0.382683 1.46804
0.794497 0.382683 1.91809
2.11836 0.707107 0.877452
1.62132 0.707107 1.62132
2.41809 0.92388 1.0016
1.85072 0.92388 1.85072
2.41809 0.92388 1.0016
1.85072 0.92388 1.85072
2.77164 1 1.14805
2.12132 1 2.12132
2.77164 -1 1.14805
2.12132 -1 2.12132
2.41809 -0.92388 1.0016
1.85072 -0.92388 1.85072
1.46804 -0.382683 1.46804
0.794497 -0.382683 1.91809
1.41421 1.22465e-16 1.41421
0.765367 1.22465e-16 1.84776
2.7746 -0.382683 2.7746
2.17999 -0.382683 3.26259
2.70926 -0.55557 2.70926
2.12865 -0.55557 3.18575
2.17999 -0.382683 3.26259
1.5016 -0.382683 3.62519
2.12865 -0.55557 3.18575
1.46624 -0.55557 3.53982
2.70926 -0.55557 2.70926
2.12865 -0.55557 3.18575
2.62132 -0.707107 2.62132
2.05956 -0.707107 3.08235
2.12865 -0.55557 3.18575
1.46624 -0.55557 3.53982
2.05956 -0.707107 3.08235
1.41865 -0.707107 3.42492
-2.22228 0 3.32588
-2.82843 0 2.82843
-2.21161 -0.19509 3.3099
-2.81484 -0.19509 2.81484
2.82843 0 2.82843
2.22228 0 3.32588
2.81484 -0.19509 2.81484
2.21161 -0.19509 3.3099
2.22228 0 3.32588
1.53073 0 3.69552
2.21161 -0.19509 3.3099
1.52338 -0.19509 3.67777
2.81484 -0.19509 2.81484
2.21161 -0.19509 3.3099
2.7746 -0.382683 2.7746
2.17999 -0.382683 3.26259
2.21161 -0.19509 3.3099
1.52338 -0.19509 3.67777
2.17999 -0.382683 3.26259
1.5016 -0.382683 3.62519
2.39192 -0.92388 2.39192
1.87932 -0.92388 2.8126
2.25927 -0.980785 2.25927
1.7751 -0.980785 2.65662
1.87932 -0.92388 2.8126
1.2945 -0.92388 3.12519
1.7751 -0.980785 2.65662
1.22271 -0.980785 2.95188
2.25927 -0.980785 2.25927
1.7751 -0.980785 2.65662
2.12132 -1 2.12132
1.66671 -1 2.49441
1.7751 -0.980785 2.65662
1.22271 -0.980785 2.95188
1.66671 -1 2.49441
1.14805 -1 2.77164
3.92388 0.382683 0
3.84848 0.382683 0.765511
3.98079 0.19509 0
3.9043 0.19509 0.776613
3.84848 0.382683 0.765511
3.62519 0.382683 1.5016
3.9043 0.19509 0.776613
3.67777 0.19509 1.52338
3.9043 0.19509 0.776613
3.67777 0.19509 1.52338
3.92314 0 0.780361
3.69552 0 1.53073
1.2945 -0.92388 3.12519
0.659929 -0.92388 3.31769
1.22271 -0.980785 2.95188
0.623331 -0.980785 3.1337
1.22271 -0.980785 2.95188
0.623331 -0.980785 3.1337
1.14805 -1 2.77164
0.585271 -1 2.94236
1.46624 -0.55557 3.53982
0.747483 -0.55557 3.75785
1.41865 -0.707107 3.42492
0.723221 -0.707107 3.63588
3.70711 -0.707107 0
3.63588 -0.707107 0.723221
3.55557 -0.83147 0
3.48725 -0.83147 0.693657
3.63588 -0.707107 0.723221
3.42492 -0.707107 1.41865
3.48725 -0.83147 0.693657
3.28492 -0.83147 1.36066
3.55557 -0.83147 0
3.48725 -0.83147 0.693657
3.38268 -0.92388 0
3.31769 -0.92388 0.659929
3.48725 -0.83147 0.693657
3.28492 -0.83147 1.36066
3.31769 -0.92388 0.659929
3.12519 -0.92388 1.2945
1.41865 -0.707107 3.42492
0.723221 -0.707107 3.63588
1.36066 -0.83147 3.28492
0.693657 -0.83147 3.48725
1.36066 -0.83147 3.28492
0.693657 -0.83147 3.48725
1.2945 -0.92388 3.12519
0.659929 -0.92388 3.31769
2.12132 1 2.12132
1.66671 1 2.49441
2.25927 0.980785 2.25927
1.7751 0.980785 2.65662
1.66671 1 2.49441
1.14805 1 2.77164
1.7751 0.980785 2.65662
1.22271 0.980785 2.95188
2.25927 0.980785 2.25927
1.7751 0.980785 2.65662
2.39192 0.92388 2.39192
1.87932 0.92388 2.8126
1.7751 0.980785 2.65662
1.22271 0.980785 2.95188
1.87932 0.92388 2.8126
1.2945 0.92388 3.12519
1.14805 1 2.77164
0.585271 1 2.94236
1.22271 0.980785 2.95188
0.623331 0.980785 3.1337
1.22271 0.980785 2.95188
0.623331 0.980785 3.1337
1.2945 0.92388 3.12519
0.659929 0.92388 3.31769
1.41865 0.707107 3.42492
0.723221 0.707107 3.63588
1.46624 0.55557 3.53982
0.747483 0.55557 3.75785
1.46624 0.55557 3.53982
0.747483 0.55557 3.75785
1.5016 0.382683 3.62519
0.765511 0.382683 3.84848
3.38268 -0.92388 0
3.31769 -0.92388 0.659929
3.19509 -0.980785 0
3.1337 -0.980785 0.623331
3.31769 -0.92388 0.659929
3.12519 -0.92388 1.2945
3.1337 -0.980785 0.623331
2.95188 -0.980785 1.22271
3.19509 -0.980785 0
3.1337 -0.980785 0.623331
3 -1 0
2.94236 -1 0.585271
3.1337 -0.980785 0.623331
2.95188 -0.980785 1.22271
2.94236 -1 0.585271
2.77164 -1 1.14805
1.2945 0.92388 3.12519
0.659929 0.92388 3.31769
1.36066 0.83147 3.28492
0.693657 0.83147 3.48725
1.36066 0.83147 3.28492
0.693657 0.83147 3.48725
1.41865 0.707107 3.42492
0.723221 0.707107 3.63588
3 1 0
2.94236 1 0.585271
3.19509 0.980785 0
3.1337 0.980785 0.623331
2.94236 1 0.585271
2.77164 1 1.14805
3.1337 0.980785 0.623331
2.95188 0.980785 1.22271
3.19509 0.980785 0
3.1337 0.980785 0.623331
3.38268 0.92388 0
3.31769 0.92388 0.659929
3.1337 0.980785 0.623331
2.95188 0.980785 1.22271
3.31769 0.92388 0.659929
3.12519 0.92388 1.2945
3.92314 0 0.780361
3.69552 0 1.53073
3.9043 -0.19509 0.776613
3.67777 -0.19509 1.52338
3.98079 -0.19509 0
3.9043 -0.19509 0.776613
3.92388 -0.382683 0
3.84848 -0.382683 0.765511
3.9043 -0.19509 0.776613
3.67777 -0.19509 1.52338
3.84848 -0.382683 0.765511
3.62519 -0.382683 1.5016
3.38268 0.92388 0
3.31769 0.92388 0.659929
3.55557 0.83147 0
3.48725 0.83147 0.693657
3.31769 0.92388 0.659929
3.12519 0.92388 1.2945
3.48725 0.83147 0.693657
3.28492 0.83147 1.36066
3.55557 0.83147 0
3.48725 0.83147 0.693657
3.70711 0.707107 0
3.63588 0.707107 0.723221
3.48725 0.83147 0.693657
3.28492 0.83147 1.36066
3.63588 0.707107 0.723221
3.42492 0.707107 1.41865
1.5016 0.382683 3.62519
0.765511 0.382683 3.84848
1.52338 0.19509 3.67777
0.776613 0.19509 3.9043
1.52338 0.19509 3.67777
0.776613 0.19509 3.9043
1.53073 0 3.69552
0.780361 0 3.92314
1.0016 0.92388 2.41809
0.510613 0.92388 2.56703
1.07339 0.980785 2.5914
0.547211 0.980785 2.75101
1.07339 0.980785 2.5914
0.547211 0.980785 2.75101
1.14805 1 2.77164
0.585271 1 2.94236
1.14805 -1 2.77164
0.585271 -1 2.94236
1.07339 -0.980785 2.5914
0.547211 -0.980785 2.75101
1.07339 -0.980785 2.5914
0.547211 -0.980785 2.75101
1.0016 -0.92388 2.41809
0.510613 -0.92388 2.56703
3.69552 0 -1.53073
3.92314 0 -0.780361
3.67777 -0.19509 -1.52338
3.9043 -0.19509 -0.776613
3.67777 -0.19509 -1.52338
3.9043 -0.19509 -0.776613
3.62519 -0.382683 -1.5016
3.84848 -0.382683 -0.765511
3.9043 -0.19509 -0.776613
3.98079 -0.19509 0
3.84848 -0.382683 -0.765511
3.92388 -0.382683 0
3.63588 0.707107 0.723221
3.42492 0.707107 1.41865
3.75785 0.55557 0.747483
3.53982 0.55557 1.46624
3.83147 0.55557 0
3.75785 0.55557 0.747483
3.92388 0.382683 0
3.84848 0.382683 0.765511
3.75785 0.55557 0.747483
3.53982 0.55557 1.46624
3.84848 0.382683 0.765511
3.62519 0.382683 1.5016
1.0016 -0.92388 2.41809
0.510613 -0.92388 2.56703
0.935443 -0.83147 2.25836
0.476885 -0.83147 2.39746
0.935443 -0.83147 2.25836
0.476885 -0.83147 2.39746
0.877452 -0.707107 2.11836
0.447321 -0.707107 2.24884
3.62519 -0.382683 -1.5016
3.84848 -0.382683 -0.765511
3.53982 -0.55557 -1.46624
3.75785 -0.55557 -0.747483
3.84848 -0.382683 -0.765511
3.92388 -0.382683 0
3.75785 -0.55557 -0.747483
3.83147 -0.55557 0
3.53982 -0.55557 -1.46624
3.75785 -0.55557 -0.747483
3.42492 -0.707107 -1.41865
3.63588 -0.707107 -0.723221
3.75785 -0.55557 -0.747483
3.83147 -0.55557 0
3.63588 -0.707107 -0.723221
3.70711 -0.707107 0
2.7746 0.382683 2.7746
2.17999 0.382683 3.26259
2.81484 0.19509 2.81484
2.21161 0.19509 3.3099
2.17999 0.382683 3.26259
1.5016 0.382683 3.62519
2.21161 0.19509 3.3099
1.52338 0.19509 3.67777
2.21161 0.19509 3.3099
1.52338 0.19509 3.67777
2.22228 0 3.32588
1.53073 0 3.69552
1.62132 0.707107 1.62132
1.27386 0.707107 1.90647
1.72847 0.83147 1.72847
1.35805 0.83147 2.03247
1.27386 0.707107 1.90647
0.877452 0.707107 2.11836
1.35805 0.83147 2.03247
0.935443 0.83147 2.25836
1.72847 0.83147 1.72847
1.35805 0.83147 2.03247
1.85072 0.92388 1.85072
1.4541 0.92388 2.17622
1.35805 0.83147 2.03247
0.935443 0.83147 2.25836
1.4541 0.92388 2.17622
1.0016 0.92388 2.41809
1.85072 0.92388 1.85072
1.4541 0.92388 2.17622
1.98337 0.980785 1.98337
1.55832 0.980785 2.3322
1.4541 0.92388 2.17622
1.0016 0.92388 2.41809
1.55832 0.980785 2.3322
1.07339 0.980785 2.5914
1.98337 0.980785 1.98337
1.55832 0.980785 2.3322
2.12132 1 2.12132
1.66671 1 2.49441
1.55832 0.980785 2.3322
1.07339 0.980785 2.5914
1.66671 1 2.49441
1.14805 1 2.77164
2.12132 -1 2.12132
1.66671 -1 2.49441
1.98337 -0.980785 1.98337
1.55832 -0.980785 2.3322
1.66671 -1 2.49441
1.14805 -1 2.77164
1.55832 -0.980785 2.3322
1.07339 -0.980785 2.5914
1.98337 -0.980785 1.98337
1.55832 -0.980785 2.3322
1.85072 -0.92388 1.85072
1.4541 -0.92388 2.17622
1.55832 -0.980785 2.3322
1.07339 -0.980785 2.5914
1.4541 -0.92388 2.17622
1.0016 -0.92388 2.41809
-0.877452 0.707107 2.11836
-1.27386 0.707107 1.90647
-0.935443 0.83147 2.25836
-1.35805 0.83147 2.03247
3.62519 0.382683 -1.5016
3.84848 0.382683 -0.765511
3.67777 0.19509 -1.52338
3.9043 0.19509 -0.776613
3.67777 0.19509 -1.52338
3.9043 0.19509 -0.776613
3.69552 0 -1.53073
3.92314 0 -0.780361
0.390181 1.22465e-16 -1.96157
0.765367 1.22465e-16 -1.84776
0.393929 0.19509 -1.98042
0.77272 0.19509 -1.86551
0.393929 0.19509 -1.98042
0.77272 0.19509 -1.86551
0.405031 0.382683 -2.03623
0.794497 0.382683 -1.91809
2.03623 0.382683 0.405031
1.91809 0.382683 0.794497
2.12686 0.55557 0.423059
2.00346 0.55557 0.829861
2.16853 0.55557 0
2.12686 0.55557 0.423059
2.29289 0.707107 0
2.24884 0.707107 0.447321
[...]
POINT_DATA 9832
SCALARS U double 1
LOOKUP_TABLE default
4.8433e-05 0.00440554 0.00200522 0.00535535 0.00213949 0.0053485 0.000423285 0.00435114 0.0070296 0.00698695 0.00774186 0.00747915 0.00175491 4.8433e-05 0.00243172 0.00200522 0.00243172 0.00200522 0.00260464 0.004248 0.00257909 0.00435059 0.0025412 0.00213949 0.0025412 0.00213949 0.00192434 0.000423285 0.00192434 0.000423285 0.00109253 -0.000514981 0.00684026 0.00686652 0.00778369 0.00705705 0.00189307 0.00757638 0.00240298 0.00638948 0.00240298 0.00638948 0.00257909 0.00435059 0.00260464 0.004248 0.00243882 0.0070296 0.00779773 0.00675502 0.00684026 0.00686652 -0.000832889 1.13428e-05 -0.000244748 0.00032143 1.13428e-05 0.00370586 0.00032143 0.00400351 -0.000244748 0.00032143 4.8433e-05 0.00222699 0.00032143 0.00400351 0.00222699 0.00440554 -0.00132187 -0.00168463 -0.00129554 -0.0015415 -0.00119368 -0.000370898 -0.0011425 -0.000197212 -0.000370898 0.00179321 -0.000197212 0.00164759 -0.0011425 -0.000197212 -0.000832889 1.13428e-05 -0.000197212 0.00164759 1.13428e-05 0.00370586 0.00200522 0.00368029 0.00312661 0.00416163 0.00368029 0.00535535 0.00416163 0.00641829 0.00312661 0.00416163 0.004248 0.00541146 0.00416163 0.00641829 0.00541146 0.00702455 -0.00293588 -0.000816817 -0.00300553 -0.00107863 -0.000816817 0.00109253 -0.00107863 0.000855696 -0.00107863 0.000855696 -0.00116276 0.000752414 0.00535535 0.0046617 0.00641829 0.00513778 0.00641829 0.00513778 0.00702455 0.00359988 0.00400351 0.00451217 0.00440554 0.00458319 -0.00274978 -0.000295299 -0.00252132 9.31498e-06 -0.000295299 0.00175491 9.31498e-06 0.00209331 -0.00252132 9.31498e-06 -0.00238656 0.000160862 9.31498e-06 0.00209331 0.000160862 0.00243172 0.00440554 0.00458319 0.00488045 0.00454564 0.00488045 0.00454564 0.00535535 0.0046617 0.00435059 0.00572534 0.00324504 0.00440047 0.00572534 0.00705764 0.00440047 0.00642762 0.00324504 0.00440047 0.00213949 0.00374399 0.00440047 0.00642762 0.00374399 0.0053485 0.00705764 0.00353153 0.00642762 0.00496232 0.00642762 0.00496232 0.0053485 0.00438811 0.00435114 0.00426689 0.00394053 0.00431592 0.00394053 0.00431592 0.00352662 0.004378 -0.00238656 0.000160862 -0.00236184 0.000174006 0.000160862 0.00243172 0.000174006 0.00251818 -0.00236184 0.000174006 -0.00244158 6.1321e-05 0.000174006 0.00251818 6.1321e-05 0.00260464 0.0053485 0.00438811 0.00484982 0.00420057 0.00484982 0.00420057 0.00435114 0.00426689 -0.00243938 7.70789e-05 -0.00234041 0.000204164 7.70789e-05 0.00257909 0.000204164 0.00256015 -0.00234041 0.000204164 -0.00232747 0.000206981 0.000204164 0.00256015 0.000206981 0.0025412 -0.00116276 0.000752414 -0.00113129 0.000789698 -0.00307995 -0.00113129 -0.00299322 -0.000918666 -0.00113129 0.000789698 -0.000918666 0.000938308 -0.00232747 0.000206981 -0.00241888 8.68052e-05 0.000206981 0.0025412 8.68052e-05 0.00223277 -0.00241888 8.68052e-05 -0.00258543 -0.000197126 8.68052e-05 0.00223277 -0.000197126 0.00192434 0.00352662 0.004378 0.00187748 0.00493031 0.00187748 0.00493031 0.00179321 0.00499031 0.00791904 0.00330317 0.0070798 0.0036836 0.0070798 0.0036836 0.00705764 0.00353153 0.00702455 0.00359988 0.00692522 0.00369608 0.00692522 0.00369608 0.00698695 0.00344123 0.000436425 -0.00148285 0.000516266 -0.00148613 0.000516266 -0.00148613 0.00067688 -0.00141487 -0.00148613 -0.00307995 -0.00141487 -0.00299322 -0.000197126 0.00192434 -0.00051585 0.00150844 -0.00279643 -0.00051585 -0.00293588 -0.000816817 -0.00051585 0.00150844 -0.000816817 0.00109253 0.00698695 0.00344123 0.00723305 0.00339636 0.00723305 0.00339636 0.00747915 0.0023987 0.00067688 -0.00141487 0.000915447 -0.00135879 -0.00141487 -0.00299322 -0.00135879 -0.00289584 0.000915447 -0.00135879 0.00121814 -0.0013444 -0.00135879 -0.00289584 -0.0013444 -0.00274978 -0.000514981 0.000104276 -0.00106291 -0.00024988 0.000104276 0.00352662 -0.00024988 0.00187748 -0.00024988 0.00187748 -0.000370898 0.00179321 0.00757638 0.00769788 0.00698293 0.00787439 0.00769788 0.00781321 0.00787439 0.00790071 0.00698293 0.00787439 0.00638948 0.00780715 0.00787439 0.00790071 0.00780715 0.00791904 0.00638948 0.00780715 0.00537003 0.00680434 0.00780715 0.00791904 0.00680434 0.0070798 0.00537003 0.00680434 0.00435059 0.00572534 0.00680434 0.0070798 0.00572534 0.00705764 0.004248 0.00541146 0.0056388 0.00630314 0.00541146 0.00702455 0.00630314 0.00692522 0.0056388 0.00630314 0.0070296 0.00700828 0.00630314 0.00692522 0.00700828 0.00698695 0.00204092 0.00583133 0.00253771 0.00636926 0.000662944 -0.00143271 0.000496482 -0.0014599 0.000496482 -0.0014599 0.000436425 -0.00148285 -0.00208051 0.00116737 -0.00205364 0.00122088 -0.00205364 0.00122088 -0.00196178 0.00138013 -0.000522522 0.00202705 -0.000592686 0.00224923 -0.00247293 -0.000592686 -0.00256193 -0.000411063 -0.000592686 0.00224923 -0.000411063 0.00189307 0.00116737 0.00465069 0.00122088 0.0047063 0.00465069 0.0059538 0.0047063 0.00604125 0.00122088 0.0047063 0.00138013 0.00484932 0.0047063 0.00604125 0.00484932 0.00625947 -0.00196178 0.00138013 -0.00186177 0.00165606 -0.00352901 -0.00186177 -0.00348419 -0.00156564 -0.00186177 0.00165606 -0.00156564 0.00197867 0.00138013 0.00484932 0.00165606 0.00501002 0.00484932 0.00625947 0.00501002 0.00649616 0.00165606 0.00501002 0.00197867 0.00512324 0.00501002 0.00649616 0.00512324 0.00661994 0.00263018 0.00640406 0.00212278 0.00587064 0.00778369 0.00742037 0.0088203 0.00748206 0.00742037 0.00705705 0.00748206 0.00774193 0.0088203 0.00748206 0.00757638 0.00769788 0.00748206 0.00774193 0.00769788 0.00781321 0.00581579 0.00402611 0.00597394 0.00417299 0.00402611 0.00100445 0.00417299 0.00108023 0.00597394 0.00417299 0.0063638 0.00457801 0.00417299 0.00108023 0.00457801 0.00130169 0.0063638 0.00457801 0.00677876 0.00512427 0.00457801 0.00130169 0.00512427 0.00163745 0.00677876 0.00512427 0.00699709 0.00562231 0.00512427 0.00163745 0.00562231 0.00203122 -0.00348419 -0.00156564 -0.00346223 -0.00123656 -0.00156564 0.00197867 -0.00123656 0.00231992 -0.00346223 -0.00123656 -0.00351081 -0.000915973 -0.00123656 0.00231992 -0.000915973 0.00262309 0.00699709 0.00562231 0.0069017 0.00585879 0.00562231 0.00203122 0.00585879 0.00242667 0.0069017 0.00585879 0.00640668 0.00574461 0.00585879 0.00242667 0.00574461 0.00278733 0.00197867 0.00512324 0.00231992 0.00510489 0.00512324 0.00661994 0.00510489 0.00652712 0.00231992 0.00510489 0.00262309 0.00489552 0.00640668 0.00574461 0.00558849 0.00531119 0.00574461 0.00278733 0.00531119 0.00309089 0.00558849 0.00531119 0.00452002 0.00458361 0.00531119 0.00309089 0.00458361 0.0031975 -0.000915973 0.00262309 -0.000629391 0.0028468 -0.00352786 -0.000629391 -0.00356127 -0.000408254 -0.000629391 0.0028468 -0.000408254 0.00295083 0.00451937 0.00458332 0.00558804 0.00531084 0.00458332 0.0031978 0.00531084 0.00309082 0.00558804 0.00531084 0.00640648 0.00574426 0.00531084 0.00309082 0.00574426 0.00278693 0.00243882 0.00473421 0.00251745 0.00488359 0.00473421 0.0070296 0.00488359 0.00738573 0.00251745 0.00488359 0.00237601 0.00505921 0.00488359 0.00738573 0.00505921 0.00774186 0.00774186 0.00761051 0.00881298 0.00707113 0.00761051 0.00747915 0.00707113 0.00726748 0.00881298 0.00707113 0.00779773 0.00727637 0.00707113 0.00726748 0.00727637 0.00675502 0.00262309 0.00489552 0.0028468 0.00449836 0.00489552 0.00617621 0.00449836 0.0054833 0.0028468 0.00449836 0.00295083 0.00393918 0.00449836 0.0054833 0.00393918 0.00456086 0.00640648 0.00574426 0.00690173 0.00585846 0.00574426 0.00278693 0.00585846 0.00242602 0.00690173 0.00585846 0.00699726 0.00562201 0.00585846 0.00242602 0.00562201 0.00203043 -0.00356044 -0.000408369 -0.00352749 -0.000629357 -0.000408369 0.00294879 -0.000629357 0.00284625 -0.000629357 0.00284625 -0.00091565 0.00262372 0.00294879 0.0039382 0.00284625 0.00449944 0.0039382 0.00454622 0.00449944 0.00546902 0.00284625 0.00449944 0.00262372 0.004898 0.00449944 0.00546902 0.004898 0.00616974 -0.00299322 -0.000918666 -0.00289584 -0.000601105 -0.000918666 0.000938308 -0.000601105 0.00118024 -0.000601105 0.00118024 -0.000295299 0.00175491 0.00699726 0.00562201 0.00677897 0.00512404 0.00562201 0.00203043 0.00512404 0.00163689 0.00677897 0.00512404 0.00636395 0.00457793 0.00512404 0.00163689 0.00457793 0.00130201 0.00190816 0.00373932 0.00196816 0.00365317 0.00373932 0.00684026 0.00365317 0.00731197 0.00196816 0.00365317 0.00202705 0.00391309 0.00365317 0.00731197 0.00391309 0.00778369 0.00636395 0.00457793 0.005974 0.00417306 0.00457793 0.00130201 0.00417306 0.00108111 0.005974 0.00417306 0.00581579 0.00402611 0.00417306 0.00108111 0.00402611 0.00100445 0.00202705 0.00391309 0.00224923 0.00379688 0.00391309 0.00778369 0.00379688 0.0088203 0.00224923 0.00379688 0.00189307 0.00473472 0.00379688 0.0088203 0.00473472 0.00757638 -0.00252911 -0.000451646 -0.00246656 -0.000546135 -0.000451646 0.00237601 -0.000546135 0.00236501 -0.000546135 0.00236501 -0.000488775 0.00213619 0.00237601 0.00505921 0.00236501 0.00427242 0.00505921 0.00774186 0.00427242 0.00881298 0.00236501 0.00427242 0.00213619 0.00408602 0.00427242 0.00881298 0.00408602 0.00779773 -0.000253195 -0.00103779 0.000663806 -0.000344316 0.000663806 -0.000344316 0.00139348 0.000726461 -0.000344316 -0.000145916 0.000726461 0.00079558 0.00213619 0.00408602 0.00201437 0.00371978 0.00408602 0.00779773 0.00371978 0.00731899 0.00201437 0.00371978 0.00190816 0.00373932 0.00371978 0.00731899 0.00373932 0.00684026 0.00177264 -0.00166942 0.00212107 -0.00146721 -0.00166942 -0.00256193 -0.00146721 -0.00242544 0.00212107 -0.00146721 0.00239223 -0.00129535 -0.00146721 -0.00242544 -0.00129535 -0.00239149 0.00239223 -0.00129535 0.00248397 -0.00124507 -0.00129535 -0.00239149 -0.00124507 -0.00239102 0.00248397 -0.00124507 0.00236411 -0.00127126 -0.00124507 -0.00239102 -0.00127126 -0.00243938 0.0024063 -0.00128049 0.00246466 -0.0012506 -0.00128049 -0.00244158 -0.0012506 -0.00238783 0.00246466 -0.0012506 0.00237005 -0.00129884 -0.0012506 -0.00238783 -0.00129884 -0.00237963 0.00237005 -0.00129884 0.00211131 -0.00146759 -0.00129884 -0.00237963 -0.00146759 -0.00241409 0.00211131 -0.00146759 0.00176549 -0.00167625 -0.00146759 -0.00241409 -0.00167625 -0.00252911 -0.00351091 -0.00091565 -0.00346265 -0.00123604 -0.00091565 0.00262372 -0.00123604 0.00232169 -0.00346265 -0.00123604 -0.00348471 -0.00156499 -0.00123604 0.00232169 -0.00156499 0.001981 0.00262372 0.004898 0.00232169 0.0051076 0.00232169 0.0051076 0.001981 0.00512671 0.0051076 0.0065295 0.00512671 0.00662244 -0.00348471 -0.00156499 -0.0035294 -0.00186115 -0.00156499 0.001981 -0.00186115 0.00165842 -0.00186115 0.00165842 -0.00196125 0.00138201 0.001981 0.00512671 0.00165842 0.00501349 0.00512671 0.00662244 0.00501349 0.00649832 0.00165842 0.00501349 0.00138201 0.00485203 0.00501349 0.00649832 0.00485203 0.00626114 -0.00196125 0.00138201 -0.00205335 0.00122192 -0.00205335 0.00122192 -0.00208051 0.00116737 0.00138201 0.00485203 0.00122192 0.00470778 0.00485203 0.00626114 0.00470778 0.00604212 0.00122192 0.00470778 0.00116737 0.00465069 0.00470778 0.00604212 0.00465069 0.0059538 0.00189401 0.00121965 0.00237218 0.00185218 0.00121965 0.000459489 0.00185218 0.00132943 0.00237218 0.00185218 0.00274734 0.00254049 0.00185218 0.00132943 0.00254049 0.00236661 0.00532766 0.00177264 0.00550859 0.00212107 0.00617621 0.00548102 0.0054833 0.00511249 0.00548102 0.00239223 0.00511249 0.00248397 0.00454622 0.00444888 0.00546902 0.00506747 0.00444888 0.0024063 0.00506747 0.00246466 0.00546902 0.00506747 0.00616974 0.00545482 0.00506747 0.00246466 0.00545482 0.00237005 0.00550371 0.00211131 0.00532468 0.00176549 0.0042271 0.000909736 0.00434744 0.000924389 0.00434744 0.000924389 0.00462941 0.00113237 0.000924389 -0.00188072 0.00113237 -0.00182686 0.00462941 0.00113237 0.00498509 0.00147887 0.00498509 0.00147887 0.00532766 0.00177264 0.00532468 0.00176549 0.00498246 0.00147093 0.00498246 0.00147093 0.00462726 0.00112602 0.00462726 0.00112602 0.00434622 0.000920848 0.00434622 0.000920848 0.0042271 0.000909736 0.00112602 -0.0018319 0.000920848 -0.00188418 0.000459489 0.0010646 0.00132943 0.00183667 0.00132943 0.00183667 0.00236661 0.0027168 0.00183667 0.00153292 0.0027168 0.00188273 0.00121814 -0.0013444 0.00153292 -0.00126717 0.00236661 0.0027168 0.00348685 0.00359193 0.00348685 0.00359193 0.00454622 0.00444888 0.00456086 0.00441285 0.00349047 0.00357636 0.00349047 0.00357636 0.00237096 0.00269267 0.00237096 0.00269267 0.00134121 0.00176832 0.00269267 0.00185171 0.00176832 0.00151253 0.00134121 0.00176832 0.000504906 0.000969382 0.00119472 -0.00126856 0.000914869 -0.00136943 0.000914869 -0.00136943 0.000662944 -0.00143271 -0.00136943 -0.00279643 -0.00143271 -0.00293588 -0.000417801 0.00274734 -0.000370463 0.00292538 -0.00369076 -0.000370463 -0.00356044 -0.000408369 -0.000370463 0.00292538 -0.000408369 0.00294879 0.00274734 0.00254049 0.00292538 0.00326092 0.00254049 0.00236661 0.00326092 0.00348685 0.00292538 0.00326092 0.00294879 0.0039382 0.00326092 0.00348685 0.0039382 0.00454622 -0.00356127 -0.000408254 -0.00369217 -0.000370036 -0.000408254 0.00295083 -0.000370036 0.00292811 -0.000370036 0.00292811 -0.000417206 0.0027512 0.00295083 0.00393918 0.00292811 0.00326679 0.00393918 0.00456086 0.00326679 0.00349047 0.00292811 0.00326679 0.0027512 0.00254825 0.00326679 0.00349047 0.00254825 0.00237096 0.0027512 0.00254825 0.0023766 0.00186135 0.00254825 0.00237096 0.00186135 0.00134121 0.0023766 0.00186135 0.00189864 0.00122624 0.00186135 0.00134121 0.00122624 0.000504906 0.000521467 0.000680393 0.00135063 0.00158188 0.000680393 0.000837181 0.00158188 0.00168272 0.00135063 0.00158188 0.00229353 0.00257908 0.00158188 0.00168272 0.00257908 0.00250528 0.00229353 0.00257908 0.00337832 0.00362738 0.00257908 0.00250528 0.00362738 0.00301537 0.00337832 0.00362738 0.00451937 0.00458332 0.00362738 0.00301537 0.00458332 0.0031978 0.00452002 0.00458361 0.00337909 0.00362756 0.00458361 0.0031975 0.00362756 0.00301471 0.00337909 0.00362756 0.00229433 0.00257912 0.00362756 0.00301471 0.00257912 0.00250432 0.00229433 0.00257912 0.00135137 0.00158178 0.00257912 0.00250432 0.00158178 0.00168159 0.00135137 0.00158178 0.000522119 0.000680189 0.00158178 0.00168159 0.000680189 0.000836027 0.00139348 0.000726461 0.0019648 0.0017014 0.000726461 0.00079558 0.0017014 0.00156721 -0.00207399 0.000594983 -0.00195338 0.000800179 -0.00195338 0.000800179 -0.00184653 0.00104075 0.00474324 0.00475426 0.0035401 0.00345975 0.00109253 0.000288776 0.000855696 3.91272e-06 0.000288776 -0.000514981 3.91272e-06 -0.00106291 3.91272e-06 -0.00106291 -0.000140133 -0.00119368 0.00213609 0.00174183 0.00144459 0.000718815 0.00174183 0.00151976 0.000718815 0.000791514 0.00781321 0.00192178 0.00790071 0.00337371 0.00790071 0.00337371 0.00791904 0.00330317 0.000423285 0.00238721 -4.58478e-05 0.000523557 0.00238721 0.00435114 0.000523557 0.00394053 -4.58478e-05 0.000523557 -0.000514981 0.000104276 0.000523557 0.00394053 0.000104276 0.00352662 0.000131257 -0.000832889 0.000572475 -0.000244748 0.00118024 0.000572475 0.00175491 0.000901671 0.000572475 -0.000244748 0.000901671 4.8433e-05 -0.000411063 0.00189307 -0.000267664 0.00214803 -0.000267664 0.00214803 -0.000181278 0.00240298 0.00100445 -0.0019999 0.00108023 -0.0019965 0.00108023 -0.0019965 0.00130169 -0.00197975 0.00130169 -0.00197975 0.00163745 -0.00193294 0.00163745 -0.00193294 0.00203122 -0.00183339 0.00203122 -0.00183339 0.00242667 -0.0016739 0.00242667 -0.0016739 0.00278733 -0.00147156 0.00278733 -0.00147156 0.00309089 -0.00127195 0.00309082 -0.00127176 0.00278693 -0.00147191 0.00278693 -0.00147191 0.00242602 -0.00167465 0.00242602 -0.00167465 0.00203043 -0.00183416 0.00203043 -0.00183416 0.00163689 -0.00193309 0.00163689 -0.00193309 0.00130201 -0.00197909 0.00130201 -0.00197909 0.00108111 -0.00199575 0.00108111 -0.00199575 0.00100445 -0.0019999 5.78871e-05 -0.000684525 0.000837181 -0.000664514 0.00250528 -0.000733135 0.00301537 -0.000860799 0.00301471 -0.000862145 0.00250432 -0.000734952 0.000836027 -0.000666673 5.68806e-05 -0.000686444 -0.00182751 0.000627787 -0.00164459 0.000927677 -0.000154504 -0.00098163 -3.73742e-05 -0.000889676 0.000627787 -3.73742e-05 0.000927677 0.00023662 -3.73742e-05 -0.000889676 0.00023662 -0.000644321 0.00023662 -0.000644321 0.000633599 -0.00019643 0.000633599 -0.00019643 0.00121965 0.000459489 0.00122624 0.000504906 0.000637709 -0.000129895 0.000637709 -0.000129895 0.000244494 -0.000624329 -0.00164397 0.00093014 -0.00182713 0.000628683 0.00093014 0.000244494 0.000628683 -3.11375e-05 0.000244494 -0.000624329 -3.11375e-05 -0.000895933 -3.11375e-05 -0.000895933 -0.000154504 -0.00098163 -0.000644321 5.80113e-05 -0.00019643 0.000464213 5.80113e-05 0.00067688 0.000464213 0.000915447 -0.00019643 0.000464213 0.000459489 0.0010646 0.000464213 0.000915447 0.0010646 0.00121814 -0.000181278 0.00240298 -3.02743e-05 0.00249104 -3.02743e-05 0.00249104 7.70789e-05 0.00257909 0.00686652 0.00105609 0.00696178 0.00118432 0.00105609 -0.00405243 0.00118432 -0.00401906 0.00696178 0.00118432 0.00705705 0.00134125 0.00118432 -0.00401906 0.00134125 -0.00403071 6.1321e-05 0.00260464 -8.50989e-06 0.00252173 -8.50989e-06 0.00252173 -0.000121215 0.00243882 0.00705705 0.00134125 0.00774193 0.00160491 0.00134125 -0.00403071 0.00160491 -0.00415396 0.00774193 0.00160491 0.00781321 0.00192178 0.00160491 -0.00415396 0.00192178 -0.00423344 -0.000121215 0.00243882 -0.000296277 0.00251745 -0.000296277 0.00251745 -0.000451646 0.00237601 0.0043666 0.000586102 0.00453834 0.000594702 0.00453834 0.000594702 0.00508155 0.000667116 0.000586102 -0.00296813 0.000594702 -0.00298793 -0.00296813 -0.00374803 -0.00298793 -0.00373527 0.000594702 -0.00298793 0.000667116 -0.00302054 -0.00298793 -0.00373527 -0.00302054 -0.00369488 0.00508155 0.000667116 0.00586836 0.00090187 0.00586836 0.00090187 0.00654145 0.00139958 0.000667116 -0.00302054 0.00090187 -0.00302254 -0.00302054 -0.00369488 -0.00302254 -0.00364951 0.00090187 -0.00302254 0.00139958 -0.00294567 -0.00302254 -0.00364951 -0.00294567 -0.00362197 0.00653928 0.00139738 0.00586625 0.000900558 0.00586625 0.000900558 0.00507914 0.000666605 0.00654145 0.00139958 0.00698046 0.00206606 0.00781742 0.00698046 0.00672961 0.0065805 0.00206606 -0.00258005 0.00272459 -0.00234432 0.00672961 0.0065805 0.00580655 0.0058839 0.00272459 -0.00234432 0.00323487 -0.00229244 0.00585035 0.00587478 0.00673907 0.00657462 0.003233 -0.00229296 0.00272158 -0.00234516 0.00673907 0.00657462 0.00782309 0.0069764 0.0069764 0.00206329 0.00653928 0.00139738 0.00272158 -0.00234516 0.00206329 -0.00258108 -0.00159535 0.00133047 -0.00146625 0.00152598 -0.00146625 0.00152598 -0.00112358 0.00203584 0.00133047 0.0042739 0.00152598 0.00445537 0.00152598 0.00445537 0.00203584 0.00489978 -0.00112358 0.00203584 -0.000667732 0.00267851 -0.000667732 0.00267851 -0.000202143 0.00327479 0.00203584 0.00489978 0.00267851 0.00538062 0.00267851 0.00538062 0.00327479 0.00569223 -0.000202143 0.00327479 0.000211703 0.00371504 0.000211703 0.00371504 0.000560848 0.00399653 0.00327479 0.00569223 0.00371504 0.00576773 0.00371504 0.00576773 0.00399653 0.00552276 0.00576773 0.0069017 0.00552276 0.00640668 0.000560848 0.00399653 0.000792439 0.00415054 -0.00348398 0.000792439 -0.00349839 0.00107525 0.00399653 0.00552276 0.00415054 0.00501952 0.00552276 0.00640668 0.00501952 0.00558849 0.00415054 0.00501952 0.00404853 0.0043649 0.00501952 0.00558849 0.0043649 0.00452002 -0.00349741 0.00107673 -0.00348273 0.000793842 0.000793842 0.00415134 0.000562015 0.00399732 0.00404924 0.00436482 0.00415134 0.00501962 0.00436482 0.00451937 0.00501962 0.00558804 0.00415134 0.00501962 0.00399732 0.00552303 0.00501962 0.00558804 0.00552303 0.00640648 0.000562015 0.00399732 0.000212534 0.00371575 0.000212534 0.00371575 -0.00020165 0.00327538 0.00399732 0.00552303 0.00371575 0.00576813 0.00552303 0.00640648 0.00576813 0.00690173 0.00371575 0.00576813 0.00327538 0.00569269 -0.00020165 0.00327538 -0.000667483 0.00267896 -0.000667483 0.00267896 -0.00112347 0.00203615 0.00327538 0.00569269 0.00267896 0.00538106 0.00267896 0.00538106 0.00203615 0.00490011 -0.00112347 0.00203615 -0.00146621 0.00152614 -0.00146621 0.0