# vtk DataFile Version 3.0
#This file was generated by the deal.II library on 2023/2/27 at 0:39:13
ASCII
DATASET UNSTRUCTURED_GRID

FIELD FieldData 2
CYCLE 1 1 int
52
TIME 1 1 double
0.104
POINTS 9832 double
2.62132 -0.707107 2.62132
1.41865 -0.707107 3.42492
2.39192 -0.92388 2.39192
1.2945 -0.92388 3.12519
2.39192 0.92388 2.39192
1.2945 0.92388 3.12519
2.62132 0.707107 2.62132
1.41865 0.707107 3.42492
1.85072 -0.92388 1.85072
1.0016 -0.92388 2.41809
1.62132 -0.707107 1.62132
0.877452 -0.707107 2.11836
3.42492 -0.707107 1.41865
2.62132 -0.707107 2.62132
3.12519 -0.92388 1.2945
2.39192 -0.92388 2.39192
3.12519 -0.92388 1.2945
2.39192 -0.92388 2.39192
2.77164 -1 1.14805
2.12132 -1 2.12132
2.77164 1 1.14805
2.12132 1 2.12132
3.12519 0.92388 1.2945
2.39192 0.92388 2.39192
3.12519 0.92388 1.2945
2.39192 0.92388 2.39192
3.42492 0.707107 1.41865
2.62132 0.707107 2.62132
3.42492 0.707107 1.41865
2.62132 0.707107 2.62132
3.62519 0.382683 1.5016
2.7746 0.382683 2.7746
1.41421 1.22465e-16 1.41421
0.765367 1.22465e-16 1.84776
1.46804 0.382683 1.46804
0.794497 0.382683 1.91809
2.11836 0.707107 0.877452
1.62132 0.707107 1.62132
2.41809 0.92388 1.0016
1.85072 0.92388 1.85072
2.41809 0.92388 1.0016
1.85072 0.92388 1.85072
2.77164 1 1.14805
2.12132 1 2.12132
2.77164 -1 1.14805
2.12132 -1 2.12132
2.41809 -0.92388 1.0016
1.85072 -0.92388 1.85072
1.46804 -0.382683 1.46804
0.794497 -0.382683 1.91809
1.41421 1.22465e-16 1.41421
0.765367 1.22465e-16 1.84776
2.7746 -0.382683 2.7746
2.17999 -0.382683 3.26259
2.70926 -0.55557 2.70926
2.12865 -0.55557 3.18575
2.17999 -0.382683 3.26259
1.5016 -0.382683 3.62519
2.12865 -0.55557 3.18575
1.46624 -0.55557 3.53982
2.70926 -0.55557 2.70926
2.12865 -0.55557 3.18575
2.62132 -0.707107 2.62132
2.05956 -0.707107 3.08235
2.12865 -0.55557 3.18575
1.46624 -0.55557 3.53982
2.05956 -0.707107 3.08235
1.41865 -0.707107 3.42492
-2.22228 0 3.32588
-2.82843 0 2.82843
-2.21161 -0.19509 3.3099
-2.81484 -0.19509 2.81484
2.82843 0 2.82843
2.22228 0 3.32588
2.81484 -0.19509 2.81484
2.21161 -0.19509 3.3099
2.22228 0 3.32588
1.53073 0 3.69552
2.21161 -0.19509 3.3099
1.52338 -0.19509 3.67777
2.81484 -0.19509 2.81484
2.21161 -0.19509 3.3099
2.7746 -0.382683 2.7746
2.17999 -0.382683 3.26259
2.21161 -0.19509 3.3099
1.52338 -0.19509 3.67777
2.17999 -0.382683 3.26259
1.5016 -0.382683 3.62519
2.39192 -0.92388 2.39192
1.87932 -0.92388 2.8126
2.25927 -0.980785 2.25927
1.7751 -0.980785 2.65662
1.87932 -0.92388 2.8126
1.2945 -0.92388 3.12519
1.7751 -0.980785 2.65662
1.22271 -0.980785 2.95188
2.25927 -0.980785 2.25927
1.7751 -0.980785 2.65662
2.12132 -1 2.12132
1.66671 -1 2.49441
1.7751 -0.980785 2.65662
1.22271 -0.980785 2.95188
1.66671 -1 2.49441
1.14805 -1 2.77164
3.92388 0.382683 0
3.84848 0.382683 0.765511
3.98079 0.19509 0
3.9043 0.19509 0.776613
3.84848 0.382683 0.765511
3.62519 0.382683 1.5016
3.9043 0.19509 0.776613
3.67777 0.19509 1.52338
3.9043 0.19509 0.776613
3.67777 0.19509 1.52338
3.92314 0 0.780361
3.69552 0 1.53073
1.2945 -0.92388 3.12519
0.659929 -0.92388 3.31769
1.22271 -0.980785 2.95188
0.623331 -0.980785 3.1337
1.22271 -0.980785 2.95188
0.623331 -0.980785 3.1337
1.14805 -1 2.77164
0.585271 -1 2.94236
1.46624 -0.55557 3.53982
0.747483 -0.55557 3.75785
1.41865 -0.707107 3.42492
0.723221 -0.707107 3.63588
3.70711 -0.707107 0
3.63588 -0.707107 0.723221
3.55557 -0.83147 0
3.48725 -0.83147 0.693657
3.63588 -0.707107 0.723221
3.42492 -0.707107 1.41865
3.48725 -0.83147 0.693657
3.28492 -0.83147 1.36066
3.55557 -0.83147 0
3.48725 -0.83147 0.693657
3.38268 -0.92388 0
3.31769 -0.92388 0.659929
3.48725 -0.83147 0.693657
3.28492 -0.83147 1.36066
3.31769 -0.92388 0.659929
3.12519 -0.92388 1.2945
1.41865 -0.707107 3.42492
0.723221 -0.707107 3.63588
1.36066 -0.83147 3.28492
0.693657 -0.83147 3.48725
1.36066 -0.83147 3.28492
0.693657 -0.83147 3.48725
1.2945 -0.92388 3.12519
0.659929 -0.92388 3.31769
2.12132 1 2.12132
1.66671 1 2.49441
2.25927 0.980785 2.25927
1.7751 0.980785 2.65662
1.66671 1 2.49441
1.14805 1 2.77164
1.7751 0.980785 2.65662
1.22271 0.980785 2.95188
2.25927 0.980785 2.25927
1.7751 0.980785 2.65662
2.39192 0.92388 2.39192
1.87932 0.92388 2.8126
1.7751 0.980785 2.65662
1.22271 0.980785 2.95188
1.87932 0.92388 2.8126
1.2945 0.92388 3.12519
1.14805 1 2.77164
0.585271 1 2.94236
1.22271 0.980785 2.95188
0.623331 0.980785 3.1337
1.22271 0.980785 2.95188
0.623331 0.980785 3.1337
1.2945 0.92388 3.12519
0.659929 0.92388 3.31769
1.41865 0.707107 3.42492
0.723221 0.707107 3.63588
1.46624 0.55557 3.53982
0.747483 0.55557 3.75785
1.46624 0.55557 3.53982
0.747483 0.55557 3.75785
1.5016 0.382683 3.62519
0.765511 0.382683 3.84848
3.38268 -0.92388 0
3.31769 -0.92388 0.659929
3.19509 -0.980785 0
3.1337 -0.980785 0.623331
3.31769 -0.92388 0.659929
3.12519 -0.92388 1.2945
3.1337 -0.980785 0.623331
2.95188 -0.980785 1.22271
3.19509 -0.980785 0
3.1337 -0.980785 0.623331
3 -1 0
2.94236 -1 0.585271
3.1337 -0.980785 0.623331
2.95188 -0.980785 1.22271
2.94236 -1 0.585271
2.77164 -1 1.14805
1.2945 0.92388 3.12519
0.659929 0.92388 3.31769
1.36066 0.83147 3.28492
0.693657 0.83147 3.48725
1.36066 0.83147 3.28492
0.693657 0.83147 3.48725
1.41865 0.707107 3.42492
0.723221 0.707107 3.63588
3 1 0
2.94236 1 0.585271
3.19509 0.980785 0
3.1337 0.980785 0.623331
2.94236 1 0.585271
2.77164 1 1.14805
3.1337 0.980785 0.623331
2.95188 0.980785 1.22271
3.19509 0.980785 0
3.1337 0.980785 0.623331
3.38268 0.92388 0
3.31769 0.92388 0.659929
3.1337 0.980785 0.623331
2.95188 0.980785 1.22271
3.31769 0.92388 0.659929
3.12519 0.92388 1.2945
3.92314 0 0.780361
3.69552 0 1.53073
3.9043 -0.19509 0.776613
3.67777 -0.19509 1.52338
3.98079 -0.19509 0
3.9043 -0.19509 0.776613
3.92388 -0.382683 0
3.84848 -0.382683 0.765511
3.9043 -0.19509 0.776613
3.67777 -0.19509 1.52338
3.84848 -0.382683 0.765511
3.62519 -0.382683 1.5016
3.38268 0.92388 0
3.31769 0.92388 0.659929
3.55557 0.83147 0
3.48725 0.83147 0.693657
3.31769 0.92388 0.659929
3.12519 0.92388 1.2945
3.48725 0.83147 0.693657
3.28492 0.83147 1.36066
3.55557 0.83147 0
3.48725 0.83147 0.693657
3.70711 0.707107 0
3.63588 0.707107 0.723221
3.48725 0.83147 0.693657
3.28492 0.83147 1.36066
3.63588 0.707107 0.723221
3.42492 0.707107 1.41865
1.5016 0.382683 3.62519
0.765511 0.382683 3.84848
1.52338 0.19509 3.67777
0.776613 0.19509 3.9043
1.52338 0.19509 3.67777
0.776613 0.19509 3.9043
1.53073 0 3.69552
0.780361 0 3.92314
1.0016 0.92388 2.41809
0.510613 0.92388 2.56703
1.07339 0.980785 2.5914
0.547211 0.980785 2.75101
1.07339 0.980785 2.5914
0.547211 0.980785 2.75101
1.14805 1 2.77164
0.585271 1 2.94236
1.14805 -1 2.77164
0.585271 -1 2.94236
1.07339 -0.980785 2.5914
0.547211 -0.980785 2.75101
1.07339 -0.980785 2.5914
0.547211 -0.980785 2.75101
1.0016 -0.92388 2.41809
0.510613 -0.92388 2.56703
3.69552 0 -1.53073
3.92314 0 -0.780361
3.67777 -0.19509 -1.52338
3.9043 -0.19509 -0.776613
3.67777 -0.19509 -1.52338
3.9043 -0.19509 -0.776613
3.62519 -0.382683 -1.5016
3.84848 -0.382683 -0.765511
3.9043 -0.19509 -0.776613
3.98079 -0.19509 0
3.84848 -0.382683 -0.765511
3.92388 -0.382683 0
3.63588 0.707107 0.723221
3.42492 0.707107 1.41865
3.75785 0.55557 0.747483
3.53982 0.55557 1.46624
3.83147 0.55557 0
3.75785 0.55557 0.747483
3.92388 0.382683 0
3.84848 0.382683 0.765511
3.75785 0.55557 0.747483
3.53982 0.55557 1.46624
3.84848 0.382683 0.765511
3.62519 0.382683 1.5016
1.0016 -0.92388 2.41809
0.510613 -0.92388 2.56703
0.935443 -0.83147 2.25836
0.476885 -0.83147 2.39746
0.935443 -0.83147 2.25836
0.476885 -0.83147 2.39746
0.877452 -0.707107 2.11836
0.447321 -0.707107 2.24884
3.62519 -0.382683 -1.5016
3.84848 -0.382683 -0.765511
3.53982 -0.55557 -1.46624
3.75785 -0.55557 -0.747483
3.84848 -0.382683 -0.765511
3.92388 -0.382683 0
3.75785 -0.55557 -0.747483
3.83147 -0.55557 0
3.53982 -0.55557 -1.46624
3.75785 -0.55557 -0.747483
3.42492 -0.707107 -1.41865
3.63588 -0.707107 -0.723221
3.75785 -0.55557 -0.747483
3.83147 -0.55557 0
3.63588 -0.707107 -0.723221
3.70711 -0.707107 0
2.7746 0.382683 2.7746
2.17999 0.382683 3.26259
2.81484 0.19509 2.81484
2.21161 0.19509 3.3099
2.17999 0.382683 3.26259
1.5016 0.382683 3.62519
2.21161 0.19509 3.3099
1.52338 0.19509 3.67777
2.21161 0.19509 3.3099
1.52338 0.19509 3.67777
2.22228 0 3.32588
1.53073 0 3.69552
1.62132 0.707107 1.62132
1.27386 0.707107 1.90647
1.72847 0.83147 1.72847
1.35805 0.83147 2.03247
1.27386 0.707107 1.90647
0.877452 0.707107 2.11836
1.35805 0.83147 2.03247
0.935443 0.83147 2.25836
1.72847 0.83147 1.72847
1.35805 0.83147 2.03247
1.85072 0.92388 1.85072
1.4541 0.92388 2.17622
1.35805 0.83147 2.03247
0.935443 0.83147 2.25836
1.4541 0.92388 2.17622
1.0016 0.92388 2.41809
1.85072 0.92388 1.85072
1.4541 0.92388 2.17622
1.98337 0.980785 1.98337
1.55832 0.980785 2.3322
1.4541 0.92388 2.17622
1.0016 0.92388 2.41809
1.55832 0.980785 2.3322
1.07339 0.980785 2.5914
1.98337 0.980785 1.98337
1.55832 0.980785 2.3322
2.12132 1 2.12132
1.66671 1 2.49441
1.55832 0.980785 2.3322
1.07339 0.980785 2.5914
1.66671 1 2.49441
1.14805 1 2.77164
2.12132 -1 2.12132
1.66671 -1 2.49441
1.98337 -0.980785 1.98337
1.55832 -0.980785 2.3322
1.66671 -1 2.49441
1.14805 -1 2.77164
1.55832 -0.980785 2.3322
1.07339 -0.980785 2.5914
1.98337 -0.980785 1.98337
1.55832 -0.980785 2.3322
1.85072 -0.92388 1.85072
1.4541 -0.92388 2.17622
1.55832 -0.980785 2.3322
1.07339 -0.980785 2.5914
1.4541 -0.92388 2.17622
1.0016 -0.92388 2.41809
-0.877452 0.707107 2.11836
-1.27386 0.707107 1.90647
-0.935443 0.83147 2.25836
-1.35805 0.83147 2.03247
3.62519 0.382683 -1.5016
3.84848 0.382683 -0.765511
3.67777 0.19509 -1.52338
3.9043 0.19509 -0.776613
3.67777 0.19509 -1.52338
3.9043 0.19509 -0.776613
3.69552 0 -1.53073
3.92314 0 -0.780361
0.390181 1.22465e-16 -1.96157
0.765367 1.22465e-16 -1.84776
0.393929 0.19509 -1.98042
0.77272 0.19509 -1.86551
0.393929 0.19509 -1.98042
0.77272 0.19509 -1.86551
0.405031 0.382683 -2.03623
0.794497 0.382683 -1.91809
2.03623 0.382683 0.405031
1.91809 0.382683 0.794497
2.12686 0.55557 0.423059
2.00346 0.55557 0.829861
2.16853 0.55557 0
2.12686 0.55557 0.423059
2.29289 0.707107 0
2.24884 0.707107 0.447321
[...]
POINT_DATA 9832
SCALARS U double 1
LOOKUP_TABLE default
0.000713337 0.00122865 0.00252587 0.00211443 0.00269796 0.00208236 0.00101822 0.0012006 0.00555607 0.00287242 0.00564656 0.00297148 0.00180902 0.000713337 0.00254417 0.00252587 0.00254417 0.00252587 0.00289922 0.0043908 0.00291498 0.0043455 0.00264178 0.00269796 0.00264178 0.00269796 0.00200821 0.00101822 0.00200821 0.00101822 0.00132175 -0.000403285 0.00489313 0.00243448 0.00527581 0.00289523 0.00253362 0.00580346 0.0027713 0.00549555 0.0027713 0.00549555 0.00291498 0.0043455 0.00289922 0.0043908 0.00296011 0.00555607 0.00530171 0.00258701 0.00489313 0.00243448 -0.000600722 -8.88458e-05 -7.27985e-05 0.000417175 -8.88458e-05 0.000276515 0.000417175 0.000702441 -7.27985e-05 0.000417175 0.000713337 0.000970996 0.000417175 0.000702441 0.000970996 0.00122865 -0.0011078 -0.00152902 -0.00110715 -0.00140265 -0.000991637 -0.000500997 -0.00086731 -0.000349493 -0.000500997 -0.000133996 -0.000349493 1.28025e-05 -0.00086731 -0.000349493 -0.000600722 -8.88458e-05 -0.000349493 1.28025e-05 -8.88458e-05 0.000276515 0.00252587 0.00232015 0.00345834 0.00290585 0.00232015 0.00211443 0.00290585 0.00286514 0.00345834 0.00290585 0.0043908 0.00352887 0.00290585 0.00286514 0.00352887 0.00295235 -0.00277347 -0.000621238 -0.00285612 -0.000891245 -0.000621238 0.00132175 -0.000891245 0.00106881 -0.000891245 0.00106881 -0.000992228 0.000969824 0.00211443 0.00052479 0.00286514 0.00134639 0.00286514 0.00134639 0.00295235 0.00160697 0.000702441 0.000597755 0.00122865 0.000599733 -0.00261447 -3.10007e-05 -0.00239555 0.000288171 -3.10007e-05 0.00180902 0.000288171 0.0021766 -0.00239555 0.000288171 -0.00225834 0.000435594 0.000288171 0.0021766 0.000435594 0.00254417 0.00122865 0.000599733 0.00167154 0.000617666 0.00167154 0.000617666 0.00211443 0.00052479 0.0043455 0.00388208 0.00352173 0.00318339 0.00388208 0.00301623 0.00318339 0.00286209 0.00352173 0.00318339 0.00269796 0.00239016 0.00318339 0.00286209 0.00239016 0.00208236 0.00301623 0.00152738 0.00286209 0.00116226 0.00286209 0.00116226 0.00208236 0.000257531 0.0012006 0.000276856 0.0006762 0.000379707 0.0006762 0.000379707 0.000260928 0.0004239 -0.00225834 0.000435594 -0.00223293 0.0004113 0.000435594 0.00254417 0.0004113 0.0027217 -0.00223293 0.0004113 -0.00230703 0.000252892 0.0004113 0.0027217 0.000252892 0.00289922 0.00208236 0.000257531 0.00164148 0.00025092 0.00164148 0.00025092 0.0012006 0.000276856 -0.00230275 0.000258235 -0.00221198 0.000436641 0.000258235 0.00291498 0.000436641 0.00277838 -0.00221198 0.000436641 -0.00220134 0.000482888 0.000436641 0.00277838 0.000482888 0.00264178 -0.000992228 0.000969824 -0.000953016 0.00102184 -0.00292465 -0.000953016 -0.00282728 -0.00071998 -0.000953016 0.00102184 -0.00071998 0.00114407 -0.00220134 0.000482888 -0.00228677 0.000360295 0.000482888 0.00264178 0.000360295 0.00232499 -0.00228677 0.000360295 -0.00245664 6.34952e-05 0.000360295 0.00232499 6.34952e-05 0.00200821 0.000260928 0.0004239 -4.75574e-05 0.000530616 -4.75574e-05 0.000530616 -0.000133996 0.000647639 0.00377271 0.00119185 0.00306905 0.0015446 0.00306905 0.0015446 0.00301623 0.00152738 0.00295235 0.00160697 0.00305931 0.00149662 0.00305931 0.00149662 0.00287242 0.00138158 0.000645598 -0.00130116 0.000739684 -0.0012979 0.000739684 -0.0012979 0.000896591 -0.00121355 -0.0012979 -0.00292465 -0.00121355 -0.00282728 6.34952e-05 0.00200821 -0.000288983 0.00166498 -0.00264805 -0.000288983 -0.00277347 -0.000621238 -0.000288983 0.00166498 -0.000621238 0.00132175 0.00287242 0.00138158 0.00292195 0.00119545 0.00292195 0.00119545 0.00297148 0.00262158 0.000896591 -0.00121355 0.00113945 -0.00115741 -0.00121355 -0.00282728 -0.00115741 -0.00273961 0.00113945 -0.00115741 0.00145027 -0.0011538 -0.00115741 -0.00273961 -0.0011538 -0.00261447 -0.000403285 1.3846e-05 -0.000825529 -0.000386228 1.3846e-05 0.000260928 -0.000386228 -4.75574e-05 -0.000386228 -4.75574e-05 -0.000500997 -0.000133996 0.00580346 0.0046437 0.0056495 0.00495989 0.0046437 0.00332647 0.00495989 0.00348878 0.0056495 0.00495989 0.00549555 0.00483442 0.00495989 0.00348878 0.00483442 0.00377271 0.00549555 0.00483442 0.00492052 0.00448359 0.00483442 0.00377271 0.00448359 0.00306905 0.00492052 0.00448359 0.0043455 0.00388208 0.00448359 0.00306905 0.00388208 0.00301623 0.0043908 0.00352887 0.00497343 0.00401198 0.00352887 0.00295235 0.00401198 0.00305931 0.00497343 0.00401198 0.00555607 0.00421424 0.00401198 0.00305931 0.00421424 0.00287242 0.00225894 0.00596751 0.00270824 0.00667404 0.000879325 -0.00123865 0.000721885 -0.00127898 0.000721885 -0.00127898 0.000645598 -0.00130116 -0.00195727 0.00134994 -0.00193078 0.00140501 -0.00193078 0.00140501 -0.00183591 0.00156887 -0.000275454 0.00213893 -0.000371388 0.00231916 -0.00238157 -0.000371388 -0.00241628 -0.000342346 -0.000371388 0.00231916 -0.000342346 0.00253362 0.00134994 0.00489645 0.00140501 0.00495131 0.00489645 0.00625032 0.00495131 0.00634202 0.00140501 0.00495131 0.00156887 0.00509295 0.00495131 0.00634202 0.00509295 0.00656962 -0.00183591 0.00156887 -0.00171325 0.00185228 -0.0034545 -0.00171325 -0.00340115 -0.00138977 -0.00171325 0.00185228 -0.00138977 0.00218586 0.00156887 0.00509295 0.00185228 0.0052491 0.00509295 0.00656962 0.0052491 0.00681152 0.00185228 0.0052491 0.00218586 0.00535846 0.0052491 0.00681152 0.00535846 0.00693331 0.00281022 0.00670709 0.00234403 0.00600647 0.00527581 0.00408552 0.00548803 0.00457594 0.00408552 0.00289523 0.00457594 0.00305792 0.00548803 0.00457594 0.00580346 0.0046437 0.00457594 0.00305792 0.0046437 0.00332647 0.00613334 0.00419679 0.00629685 0.0043486 0.00419679 0.00120457 0.0043486 0.00127982 0.00629685 0.0043486 0.00669675 0.00477301 0.0043486 0.00127982 0.00477301 0.00150286 0.00669675 0.00477301 0.00711422 0.00535284 0.00477301 0.00150286 0.00535284 0.00184437 0.00711422 0.00535284 0.00732003 0.00588865 0.00535284 0.00184437 0.00588865 0.0022474 -0.00340115 -0.00138977 -0.00337737 -0.00104184 -0.00138977 0.00218586 -0.00104184 0.00254005 -0.00337737 -0.00104184 -0.00344127 -0.000716475 -0.00104184 0.00254005 -0.000716475 0.00285772 0.00732003 0.00588865 0.00719114 0.00614887 0.00588865 0.0022474 0.00614887 0.00265442 0.00719114 0.00614887 0.00667205 0.00601138 0.00614887 0.00265442 0.00601138 0.00302694 0.00218586 0.00535846 0.00254005 0.00534257 0.00535846 0.00693331 0.00534257 0.00682987 0.00254005 0.00534257 0.00285772 0.00512444 0.00667205 0.00601138 0.005837 0.00557376 0.00601138 0.00302694 0.00557376 0.00335896 0.005837 0.00557376 0.00474036 0.00482045 0.00557376 0.00335896 0.00482045 0.0034987 -0.000716475 0.00285772 -0.000408392 0.00309083 -0.00346942 -0.000408392 -0.00347894 -0.000160485 -0.000408392 0.00309083 -0.000160485 0.00320248 0.00473968 0.00482015 0.00583654 0.0055734 0.00482015 0.00349901 0.0055734 0.00335888 0.00583654 0.0055734 0.00667186 0.00601102 0.0055734 0.00335888 0.00601102 0.00302653 0.00296011 0.00425809 0.00278785 0.00490336 0.00425809 0.00555607 0.00490336 0.00560131 0.00278785 0.00490336 0.0026783 0.0050393 0.00490336 0.00560131 0.0050393 0.00564656 0.00564656 0.00430902 0.00556524 0.00409532 0.00430902 0.00297148 0.00409532 0.00255007 0.00556524 0.00409532 0.00530171 0.00394436 0.00409532 0.00255007 0.00394436 0.00258701 0.00285772 0.00512444 0.00309083 0.00471917 0.00512444 0.00644569 0.00471917 0.00573477 0.00309083 0.00471917 0.00320248 0.00415037 0.00471917 0.00573477 0.00415037 0.00478758 0.00667186 0.00601102 0.00719118 0.00614854 0.00601102 0.00302653 0.00614854 0.00265375 0.00719118 0.00614854 0.00732022 0.00588835 0.00614854 0.00265375 0.00588835 0.00224657 -0.00347809 -0.000160655 -0.00346907 -0.000408254 -0.000160655 0.00320068 -0.000408254 0.00308988 -0.000408254 0.00308988 -0.000716126 0.00285833 0.00320068 0.00414827 0.00308988 0.00472188 0.00414827 0.00477824 0.00472188 0.00571522 0.00308988 0.00472188 0.00285833 0.00512689 0.00472188 0.00571522 0.00512689 0.00644081 -0.00282728 -0.00071998 -0.00273961 -0.000404717 -0.00071998 0.00114407 -0.000404717 0.00142939 -0.000404717 0.00142939 -3.10007e-05 0.00180902 0.00732022 0.00588835 0.00711445 0.0053526 0.00588835 0.00224657 0.0053526 0.00184366 0.00711445 0.0053526 0.00669692 0.00477291 0.0053526 0.00184366 0.00477291 0.00150317 0.00198938 0.00433051 0.00203447 0.00435465 0.00433051 0.00489313 0.00435465 0.00508447 0.00203447 0.00435465 0.00213893 0.0044771 0.00435465 0.00508447 0.0044771 0.00527581 0.00669692 0.00477291 0.00629691 0.00434864 0.00477291 0.00150317 0.00434864 0.00128103 0.00629691 0.00434864 0.00613334 0.00419679 0.00434864 0.00128103 0.00419679 0.00120457 0.00213893 0.0044771 0.00231916 0.00448618 0.0044771 0.00527581 0.00448618 0.00548803 0.00231916 0.00448618 0.00253362 0.00416854 0.00448618 0.00548803 0.00416854 0.00580346 -0.00240109 -0.00030073 -0.00237157 -0.000341423 -0.00030073 0.0026783 -0.000341423 0.00248519 -0.000341423 0.00248519 -0.000237612 0.0022365 0.0026783 0.0050393 0.00248519 0.00488052 0.0050393 0.00564656 0.00488052 0.00556524 0.00248519 0.00488052 0.0022365 0.00464951 0.00488052 0.00556524 0.00464951 0.00530171 -4.91099e-05 -0.000903415 0.000909443 -0.000215119 0.000909443 -0.000215119 0.00164035 0.000937263 -0.000215119 5.44737e-05 0.000937263 0.00103648 0.0022365 0.00464951 0.00208092 0.00441788 0.00464951 0.00530171 0.00441788 0.00509742 0.00208092 0.00441788 0.00198938 0.00433051 0.00441788 0.00509742 0.00433051 0.00489313 0.00196248 -0.00155297 0.00232885 -0.00130534 -0.00155297 -0.00241628 -0.00130534 -0.00231371 0.00232885 -0.00130534 0.00262112 -0.00112418 -0.00130534 -0.00231371 -0.00112418 -0.00226812 0.00262112 -0.00112418 0.00273481 -0.0010698 -0.00112418 -0.00226812 -0.0010698 -0.00226747 0.00273481 -0.0010698 0.00262309 -0.00111714 -0.0010698 -0.00226747 -0.00111714 -0.00230275 0.00265709 -0.00112267 0.00270353 -0.00107558 -0.00112267 -0.00230703 -0.00107558 -0.00226449 0.00270353 -0.00107558 0.00259939 -0.00112639 -0.00107558 -0.00226449 -0.00112639 -0.00225904 0.00259939 -0.00112639 0.00232107 -0.00130725 -0.00112639 -0.00225904 -0.00130725 -0.00229497 0.00232107 -0.00130725 0.00195355 -0.00155554 -0.00130725 -0.00229497 -0.00155554 -0.00240109 -0.0034414 -0.000716126 -0.00337783 -0.00104132 -0.000716126 0.00285833 -0.00104132 0.00254192 -0.00337783 -0.00104132 -0.00340173 -0.00138912 -0.00104132 0.00254192 -0.00138912 0.00218826 0.00285833 0.00512689 0.00254192 0.00534515 0.00254192 0.00534515 0.00218826 0.00536212 0.00534515 0.00683308 0.00536212 0.00693576 -0.00340173 -0.00138912 -0.00345496 -0.00171262 -0.00138912 0.00218826 -0.00171262 0.00185472 -0.00171262 0.00185472 -0.00183539 0.00157081 0.00218826 0.00536212 0.00185472 0.00525268 0.00536212 0.00693576 0.00525268 0.00681389 0.00185472 0.00525268 0.00157081 0.00509575 0.00525268 0.00681389 0.00509575 0.00657141 -0.00183539 0.00157081 -0.0019305 0.00140607 -0.0019305 0.00140607 -0.00195727 0.00134994 0.00157081 0.00509575 0.00140607 0.00495283 0.00509575 0.00657141 0.00495283 0.00634296 0.00140607 0.00495283 0.00134994 0.00489645 0.00495283 0.00634296 0.00489645 0.00625032 0.00216061 0.00140541 0.00265439 0.0020328 0.00140541 0.000627368 0.0020328 0.00150613 0.00265439 0.0020328 0.00302181 0.00272736 0.0020328 0.00150613 0.00272736 0.00255744 0.00562241 0.00196248 0.0058001 0.00232885 0.00644569 0.00576398 0.00573477 0.00538127 0.00576398 0.00262112 0.00538127 0.00273481 0.00477824 0.00470259 0.00571522 0.00532348 0.00470259 0.00265709 0.00532348 0.00270353 0.00571522 0.00532348 0.00644081 0.00573917 0.00532348 0.00270353 0.00573917 0.00259939 0.00579634 0.00232107 0.00561973 0.00195355 0.00447605 0.00106261 0.00460116 0.00108669 0.00460116 0.00108669 0.00489511 0.00130126 0.00108669 -0.00176663 0.00130126 -0.00170791 0.00489511 0.00130126 0.0052681 0.0016463 0.0052681 0.0016463 0.00562241 0.00196248 0.00561973 0.00195355 0.00526554 0.00163815 0.00526554 0.00163815 0.00489297 0.00129449 0.00489297 0.00129449 0.00459996 0.00108298 0.00459996 0.00108298 0.00447605 0.00106261 0.00129449 -0.00171313 0.00108298 -0.00177031 0.000627368 0.00124856 0.00150613 0.00202814 0.00150613 0.00202814 0.00255744 0.00292735 0.00202814 0.00177631 0.00292735 0.00212822 0.00145027 -0.0011538 0.00177631 -0.00110712 0.00255744 0.00292735 0.00369399 0.0038374 0.00369399 0.0038374 0.00477824 0.00470259 0.00478758 0.00467506 0.00369827 0.0038199 0.00369827 0.0038199 0.00256263 0.00290931 0.00256263 0.00290931 0.00151421 0.00196249 0.00290931 0.00209492 0.00196249 0.00175337 0.00151421 0.00196249 0.000675187 0.0011273 0.00143655 -0.00109538 0.00114504 -0.00117287 0.00114504 -0.00117287 0.000879325 -0.00123865 -0.00117287 -0.00264805 -0.00123865 -0.00277347 -0.000203349 0.00302181 -0.000134023 0.00317929 -0.00361032 -0.000134023 -0.00347809 -0.000160655 -0.000134023 0.00317929 -0.000160655 0.00320068 0.00302181 0.00272736 0.00317929 0.0034646 0.00272736 0.00255744 0.0034646 0.00369399 0.00317929 0.0034646 0.00320068 0.00414827 0.0034646 0.00369399 0.00414827 0.00477824 -0.00347894 -0.000160485 -0.00361177 -0.000133602 -0.000160485 0.00320248 -0.000133602 0.00318205 -0.000133602 0.00318205 -0.000202765 0.00302573 0.00320248 0.00415037 0.00318205 0.0034704 0.00415037 0.00478758 0.0034704 0.00369827 0.00318205 0.0034704 0.00302573 0.00273498 0.0034704 0.00369827 0.00273498 0.00256263 0.00302573 0.00273498 0.00265889 0.00204237 0.00273498 0.00256263 0.00204237 0.00151421 0.00265889 0.00204237 0.00216576 0.00141105 0.00204237 0.00151421 0.00141105 0.000675187 0.000710114 0.000871939 0.00153504 0.00176415 0.000871939 0.00103756 0.00176415 0.00193995 0.00153504 0.00176415 0.00247534 0.00277281 0.00176415 0.00193995 0.00277281 0.00278797 0.00247534 0.00277281 0.003569 0.00384173 0.00277281 0.00278797 0.00384173 0.00332283 0.003569 0.00384173 0.00473968 0.00482015 0.00384173 0.00332283 0.00482015 0.00349901 0.00474036 0.00482045 0.0035698 0.00384192 0.00482045 0.0034987 0.00384192 0.00332216 0.0035698 0.00384192 0.00247615 0.00277285 0.00384192 0.00332216 0.00277285 0.002787 0.00247615 0.00277285 0.0015358 0.00176404 0.00277285 0.002787 0.00176404 0.00193879 0.0015358 0.00176404 0.000710786 0.000871719 0.00176404 0.00193879 0.000871719 0.00103639 0.00164035 0.000937263 0.00215748 0.00194985 0.000937263 0.00103648 0.00194985 0.00177219 -0.00187069 0.000653147 -0.00174789 0.000896454 -0.00174789 0.000896454 -0.00165941 0.00111329 0.00497597 0.00500563 0.00372819 0.00364266 0.00132175 0.000459232 0.00106881 0.000170902 0.000459232 -0.000403285 0.000170902 -0.000825529 0.000170902 -0.000825529 1.25523e-05 -0.000991637 0.00232708 0.00198788 0.00167137 0.000917794 0.00198788 0.00172383 0.000917794 0.00103918 0.00332647 0.00226803 0.00348878 0.0012157 0.00348878 0.0012157 0.00377271 0.00119185 0.00101822 0.00110941 0.000307466 0.000590701 0.00110941 0.0012006 0.000590701 0.0006762 0.000307466 0.000590701 -0.000403285 1.3846e-05 0.000590701 0.0006762 1.3846e-05 0.000260928 0.000289522 -0.000600722 0.0007028 -7.27985e-05 0.00142939 0.0007028 0.00180902 0.00126118 0.0007028 -7.27985e-05 0.00126118 0.000713337 -0.000342346 0.00253362 -0.000188218 0.00265246 -0.000188218 0.00265246 -5.05452e-05 0.0027713 0.00120457 -0.00186288 0.00127982 -0.0018614 0.00127982 -0.0018614 0.00150286 -0.00185029 0.00150286 -0.00185029 0.00184437 -0.00181245 0.00184437 -0.00181245 0.0022474 -0.00172017 0.0022474 -0.00172017 0.00265442 -0.00155706 0.00265442 -0.00155706 0.00302694 -0.00134183 0.00302694 -0.00134183 0.00335896 -0.00113176 0.00335888 -0.00113156 0.00302653 -0.00134219 0.00302653 -0.00134219 0.00265375 -0.00155786 0.00265375 -0.00155786 0.00224657 -0.00172102 0.00224657 -0.00172102 0.00184366 -0.00181258 0.00184366 -0.00181258 0.00150317 -0.00184944 0.00150317 -0.00184944 0.00128103 -0.00186051 0.00128103 -0.00186051 0.00120457 -0.00186288 0.0002485 -0.000446446 0.00103756 -0.000437342 0.00278797 -0.000536491 0.00332283 -0.000696971 0.00332216 -0.000698337 0.002787 -0.000538338 0.00103639 -0.000439548 0.000247494 -0.00044842 -0.00165201 0.000841147 -0.00146771 0.00114943 3.44116e-05 -0.000825967 0.000139114 -0.000710996 0.000841147 0.000139114 0.00114943 0.000417507 0.000139114 -0.000710996 0.000417507 -0.000481251 0.000417507 -0.000481251 0.000828004 -3.67679e-05 0.000828004 -3.67679e-05 0.00140541 0.000627368 0.00141105 0.000675187 0.000827494 4.94756e-05 0.000827494 4.94756e-05 0.000427329 -0.000469544 -0.00146699 0.00115148 -0.00165158 0.00084193 0.00115148 0.000427329 0.00084193 0.000145742 0.000427329 -0.000469544 0.000145742 -0.000719963 0.000145742 -0.000719963 3.44116e-05 -0.000825967 -0.000481251 0.000231449 -3.67679e-05 0.000645505 0.000231449 0.000896591 0.000645505 0.00113945 -3.67679e-05 0.000645505 0.000627368 0.00124856 0.000645505 0.00113945 0.00124856 0.00145027 -5.05452e-05 0.0027713 0.000107427 0.00284314 0.000107427 0.00284314 0.000258235 0.00291498 0.00243448 0.00150091 0.00266486 0.00158982 0.00150091 -0.00436269 0.00158982 -0.00432839 0.00266486 0.00158982 0.00289523 0.00174894 0.00158982 -0.00432839 0.00174894 -0.00430856 0.000252892 0.00289922 0.000110066 0.00292967 0.000110066 0.00292967 -4.21633e-05 0.00296011 0.00289523 0.00174894 0.00305792 0.00187661 0.00174894 -0.00430856 0.00187661 -0.0043977 0.00305792 0.00187661 0.00332647 0.00226803 0.00187661 -0.0043977 0.00226803 -0.00452287 -4.21633e-05 0.00296011 -0.000138823 0.00278785 -0.000138823 0.00278785 -0.00030073 0.0026783 0.00452747 0.000806367 0.00467927 0.000804043 0.00467927 0.000804043 0.00522879 0.000848627 0.000806367 -0.00284947 0.000804043 -0.00287215 -0.00284947 -0.00366055 -0.00287215 -0.00365254 0.000804043 -0.00287215 0.000848627 -0.00290476 -0.00287215 -0.00365254 -0.00290476 -0.00361605 0.00522879 0.000848627 0.00609436 0.00105029 0.00609436 0.00105029 0.00684103 0.00153401 0.000848627 -0.00290476 0.00105029 -0.00290102 -0.00290476 -0.00361605 -0.00290102 -0.00357058 0.00105029 -0.00290102 0.00153401 -0.00283674 -0.00290102 -0.00357058 -0.00283674 -0.00355915 0.00683856 0.00153187 0.00609213 0.00104905 0.00609213 0.00104905 0.00522651 0.00084819 0.00684103 0.00153401 0.00734817 0.0022428 0.00799219 0.00734817 0.00685066 0.00691311 0.0022428 -0.00248209 0.00296734 -0.00223012 0.00685066 0.00691311 0.00602686 0.00609529 0.00296734 -0.00223012 0.00352481 -0.00220178 0.00607055 0.00608388 0.00685506 0.00690723 0.00352313 -0.00220243 0.00296428 -0.00223103 0.00685506 0.00690723 0.00799517 0.00734467 0.00734467 0.00223985 0.00683856 0.00153187 0.00296428 -0.00223103 0.00223985 -0.00248307 -0.00144557 0.00147654 -0.0013088 0.00168317 -0.0013088 0.00168317 -0.000950025 0.00222153 0.00147654 0.00448084 0.00168317 0.00467359 0.00168317 0.00467359 0.00222153 0.0051405 -0.000950025 0.00222153 -0.000478046 0.00289601 -0.000478046 0.00289601 7.4112e-06 0.00351346 0.00222153 0.0051405 0.00289601 0.00563611 0.00289601 0.00563611 0.00351346 0.00594579 7.4112e-06 0.00351346 0.000426641 0.00396718 0.000426641 0.00396718 0.000780915 0.00425125 0.00351346 0.00594579 0.00396718 0.00600005 0.00396718 0.00600005 0.00425125 0.00575073 0.00600005 0.00719114 0.00575073 0.00667205 0.000780915 0.00425125 0.00104451 0.00440173 -0.00345168 0.00104451 -0.00338577 0.00135118 0.00425125 0.00575073 0.00440173 0.00523584 0.00575073 0.00667205 0.00523584 0.005837 0.00440173 0.00523584 0.00432989 0.00456416 0.00523584 0.005837 0.00456416 0.00474036 -0.00338458 0.00135265 -0.00345034 0.00104594 0.00104594 0.00440255 0.000782111 0.00425204 0.00433062 0.00456408 0.00440255 0.00523594 0.00456408 0.00473968 0.00523594 0.00583654 0.00440255 0.00523594 0.00425204 0.005751 0.00523594 0.00583654 0.005751 0.00667186 0.000782111 0.00425204 0.000427478 0.00396789 0.000427478 0.00396789 7.8945e-06 0.00351405 0.00425204 0.005751 0.00396789 0.00600046 0.005751 0.00667186 0.00600046 0.00719118 0.00396789 0.00600046 0.00351405 0.00594627 7.8945e-06 0.00351405 -0.000477809 0.00289647 -0.000477809 0.00289647 -0.00094992 0.00222184 0.00351405 0.00594627 0.00289647 0.00563656 0.00289647 0.00563656 0.00222184 0.00514083 -0.00094992 0.00222184 -0.00130876 0.00168333 -0.00130876 0.00168333 -0.00144557