# vtk DataFile Version 3.0
#This file was generated by the deal.II library on 2023/2/27 at 0:39:15
ASCII
DATASET UNSTRUCTURED_GRID

FIELD FieldData 2
CYCLE 1 1 int
59
TIME 1 1 double
0.118
POINTS 11488 double
-3.62519 -0.382683 -1.5016
-2.7746 -0.382683 -2.7746
-3.42492 -0.707107 -1.41865
-2.62132 -0.707107 -2.62132
-3.42492 -0.707107 -1.41865
-2.62132 -0.707107 -2.62132
-3.12519 -0.92388 -1.2945
-2.39192 -0.92388 -2.39192
-3.12519 0.92388 -1.2945
-2.39192 0.92388 -2.39192
-3.42492 0.707107 -1.41865
-2.62132 0.707107 -2.62132
-3.42492 0.707107 -1.41865
-2.62132 0.707107 -2.62132
-3.62519 0.382683 -1.5016
-2.7746 0.382683 -2.7746
-1.53073 0 3.69552
-2.22228 0 3.32588
-1.52338 -0.19509 3.67777
-2.21161 -0.19509 3.3099
-2.22228 0 3.32588
-2.82843 0 2.82843
-2.21161 -0.19509 3.3099
-2.81484 -0.19509 2.81484
-1.52338 -0.19509 3.67777
-2.21161 -0.19509 3.3099
-1.5016 -0.382683 3.62519
-2.17999 -0.382683 3.26259
-2.21161 -0.19509 3.3099
-2.81484 -0.19509 2.81484
-2.17999 -0.382683 3.26259
-2.7746 -0.382683 2.7746
2.39192 -0.92388 2.39192
1.87932 -0.92388 2.8126
2.25927 -0.980785 2.25927
1.7751 -0.980785 2.65662
2.25927 -0.980785 2.25927
1.7751 -0.980785 2.65662
2.12132 -1 2.12132
1.66671 -1 2.49441
3.98079 0.19509 0
3.9043 0.19509 0.776613
4 0 0
3.92314 0 0.780361
-0.765511 -0.382683 3.84848
-1.5016 -0.382683 3.62519
-0.747483 -0.55557 3.75785
-1.46624 -0.55557 3.53982
-0.747483 -0.55557 3.75785
-1.46624 -0.55557 3.53982
-0.723221 -0.707107 3.63588
-1.41865 -0.707107 3.42492
3.63588 -0.707107 0.723221
3.42492 -0.707107 1.41865
3.48725 -0.83147 0.693657
3.28492 -0.83147 1.36066
3.48725 -0.83147 0.693657
3.28492 -0.83147 1.36066
3.31769 -0.92388 0.659929
3.12519 -0.92388 1.2945
2.12132 1 2.12132
1.66671 1 2.49441
2.25927 0.980785 2.25927
1.7751 0.980785 2.65662
2.25927 0.980785 2.25927
1.7751 0.980785 2.65662
2.39192 0.92388 2.39192
1.87932 0.92388 2.8126
3.31769 -0.92388 0.659929
3.12519 -0.92388 1.2945
3.1337 -0.980785 0.623331
2.95188 -0.980785 1.22271
3.1337 -0.980785 0.623331
2.95188 -0.980785 1.22271
2.94236 -1 0.585271
2.77164 -1 1.14805
2.94236 1 0.585271
2.77164 1 1.14805
3.1337 0.980785 0.623331
2.95188 0.980785 1.22271
3.1337 0.980785 0.623331
2.95188 0.980785 1.22271
3.31769 0.92388 0.659929
3.12519 0.92388 1.2945
4 0 0
3.92314 0 0.780361
3.98079 -0.19509 0
3.9043 -0.19509 0.776613
3.92314 0 0.780361
3.69552 0 1.53073
3.9043 -0.19509 0.776613
3.67777 -0.19509 1.52338
3.31769 0.92388 0.659929
3.12519 0.92388 1.2945
3.48725 0.83147 0.693657
3.28492 0.83147 1.36066
3.48725 0.83147 0.693657
3.28492 0.83147 1.36066
3.63588 0.707107 0.723221
3.42492 0.707107 1.41865
3.69552 0 -1.53073
3.92314 0 -0.780361
3.67777 -0.19509 -1.52338
3.9043 -0.19509 -0.776613
3.92314 0 -0.780361
4 0 0
3.9043 -0.19509 -0.776613
3.98079 -0.19509 0
3.67777 -0.19509 -1.52338
3.9043 -0.19509 -0.776613
3.62519 -0.382683 -1.5016
3.84848 -0.382683 -0.765511
-0.585271 1 2.94236
-1.14805 1 2.77164
-0.623331 0.980785 3.1337
-1.22271 0.980785 2.95188
3.70711 0.707107 0
3.63588 0.707107 0.723221
3.83147 0.55557 0
3.75785 0.55557 0.747483
3.63588 0.707107 0.723221
3.42492 0.707107 1.41865
3.75785 0.55557 0.747483
3.53982 0.55557 1.46624
3.75785 0.55557 0.747483
3.53982 0.55557 1.46624
3.84848 0.382683 0.765511
3.62519 0.382683 1.5016
3.62519 -0.382683 -1.5016
3.84848 -0.382683 -0.765511
3.53982 -0.55557 -1.46624
3.75785 -0.55557 -0.747483
1.98337 0.980785 1.98337
1.55832 0.980785 2.3322
2.12132 1 2.12132
1.66671 1 2.49441
-0.877452 0.707107 2.11836
-1.27386 0.707107 1.90647
-0.935443 0.83147 2.25836
-1.35805 0.83147 2.03247
-0.935443 0.83147 2.25836
-1.35805 0.83147 2.03247
-1.0016 0.92388 2.41809
-1.4541 0.92388 2.17622
-1.07339 0.980785 2.5914
-1.55832 0.980785 2.3322
-1.14805 1 2.77164
-1.66671 1 2.49441
-1.55832 0.980785 2.3322
-1.98337 0.980785 1.98337
-1.66671 1 2.49441
-2.12132 1 2.12132
-1.14805 -1 2.77164
-1.66671 -1 2.49441
-1.07339 -0.980785 2.5914
-1.55832 -0.980785 2.3322
-1.66671 -1 2.49441
-2.12132 -1 2.12132
-1.55832 -0.980785 2.3322
-1.98337 -0.980785 1.98337
3.62519 0.382683 -1.5016
3.84848 0.382683 -0.765511
3.67777 0.19509 -1.52338
3.9043 0.19509 -0.776613
3.84848 0.382683 -0.765511
3.92388 0.382683 0
3.9043 0.19509 -0.776613
3.98079 0.19509 0
3.67777 0.19509 -1.52338
3.9043 0.19509 -0.776613
3.69552 0 -1.53073
3.92314 0 -0.780361
3.9043 0.19509 -0.776613
3.98079 0.19509 0
3.92314 0 -0.780361
4 0 0
0 0 -2
0.390181 1.22465e-16 -1.96157
-3.70924e-16 0.19509 -2.01921
0.393929 0.19509 -1.98042
0.390181 1.22465e-16 -1.96157
0.765367 1.22465e-16 -1.84776
0.393929 0.19509 -1.98042
0.77272 0.19509 -1.86551
-3.70924e-16 0.19509 -2.01921
0.393929 0.19509 -1.98042
-3.81377e-16 0.382683 -2.07612
0.405031 0.382683 -2.03623
0.393929 0.19509 -1.98042
0.77272 0.19509 -1.86551
0.405031 0.382683 -2.03623
0.794497 0.382683 -1.91809
2.07612 0.382683 0
2.03623 0.382683 0.405031
2.16853 0.55557 0
2.12686 0.55557 0.423059
2.03623 0.382683 0.405031
1.91809 0.382683 0.794497
2.12686 0.55557 0.423059
2.00346 0.55557 0.829861
0.77272 0.19509 -1.86551
1.12182 0.19509 -1.67892
0.794497 0.382683 -1.91809
1.15343 0.382683 -1.72623
-3.81377e-16 0.382683 -2.07612
0.405031 0.382683 -2.03623
-3.98353e-16 0.55557 -2.16853
0.423059 0.55557 -2.12686
0.405031 0.382683 -2.03623
0.794497 0.382683 -1.91809
0.423059 0.55557 -2.12686
0.829861 0.55557 -2.00346
0.423059 0.55557 -2.12686
0.829861 0.55557 -2.00346
0.447321 0.707107 -2.24884
0.877452 0.707107 -2.11836
0.794497 0.382683 -1.91809
1.15343 0.382683 -1.72623
0.829861 0.55557 -2.00346
1.20477 0.55557 -1.80307
0.829861 0.55557 -2.00346
1.20477 0.55557 -1.80307
0.877452 0.707107 -2.11836
1.27386 0.707107 -1.90647
-1.0016 -0.92388 2.41809
-1.4541 -0.92388 2.17622
-0.935443 -0.83147 2.25836
-1.35805 -0.83147 2.03247
-0.935443 -0.83147 2.25836
-1.35805 -0.83147 2.03247
-0.877452 -0.707107 2.11836
-1.27386 -0.707107 1.90647
-1.11114 1.22465e-16 -1.66294
-0.765367 1.22465e-16 -1.84776
-1.12182 0.19509 -1.67892
-0.77272 0.19509 -1.86551
-1.12182 0.19509 -1.67892
-0.77272 0.19509 -1.86551
-1.15343 0.382683 -1.72623
-0.794497 0.382683 -1.91809
-1.15343 0.382683 -1.72623
-0.794497 0.382683 -1.91809
-1.20477 0.55557 -1.80307
-0.829861 0.55557 -2.00346
-1.20477 0.55557 -1.80307
-0.829861 0.55557 -2.00346
-1.27386 0.707107 -1.90647
-0.877452 0.707107 -2.11836
0.447321 0.707107 -2.24884
0.877452 0.707107 -2.11836
0.476885 0.83147 -2.39746
0.935443 0.83147 -2.25836
0.476885 0.83147 -2.39746
0.935443 0.83147 -2.25836
0.510613 0.92388 -2.56703
1.0016 0.92388 -2.41809
0.877452 0.707107 -2.11836
1.27386 0.707107 -1.90647
0.935443 0.83147 -2.25836
1.35805 0.83147 -2.03247
0.935443 0.83147 -2.25836
1.35805 0.83147 -2.03247
1.0016 0.92388 -2.41809
1.4541 0.92388 -2.17622
1.35805 0.83147 -2.03247
1.72847 0.83147 -1.72847
1.4541 0.92388 -2.17622
1.85072 0.92388 -1.85072
-4.80793e-16 0.92388 -2.61732
0.510613 0.92388 -2.56703
-5.15254e-16 0.980785 -2.80491
0.547211 0.980785 -2.75101
0.510613 0.92388 -2.56703
1.0016 0.92388 -2.41809
0.547211 0.980785 -2.75101
1.07339 0.980785 -2.5914
0.547211 0.980785 -2.75101
1.07339 0.980785 -2.5914
0.585271 1 -2.94236
1.14805 1 -2.77164
1.0016 0.92388 -2.41809
1.4541 0.92388 -2.17622
1.07339 0.980785 -2.5914
1.55832 0.980785 -2.3322
1.07339 0.980785 -2.5914
1.55832 0.980785 -2.3322
1.14805 1 -2.77164
1.66671 1 -2.49441
1.55832 0.980785 -2.3322
1.98337 0.980785 -1.98337
1.66671 1 -2.49441
2.12132 1 -2.12132
0.585271 -1 -2.94236
1.14805 -1 -2.77164
0.547211 -0.980785 -2.75101
1.07339 -0.980785 -2.5914
-5.15254e-16 -0.980785 -2.80491
0.547211 -0.980785 -2.75101
-4.80793e-16 -0.92388 -2.61732
0.510613 -0.92388 -2.56703
0.547211 -0.980785 -2.75101
1.07339 -0.980785 -2.5914
0.510613 -0.92388 -2.56703
1.0016 -0.92388 -2.41809
1.14805 -1 -2.77164
1.66671 -1 -2.49441
1.07339 -0.980785 -2.5914
1.55832 -0.980785 -2.3322
1.66671 -1 -2.49441
2.12132 -1 -2.12132
1.55832 -0.980785 -2.3322
1.98337 -0.980785 -1.98337
1.07339 -0.980785 -2.5914
1.55832 -0.980785 -2.3322
1.0016 -0.92388 -2.41809
1.4541 -0.92388 -2.17622
3.84848 -0.382683 0.765511
3.62519 -0.382683 1.5016
3.75785 -0.55557 0.747483
3.53982 -0.55557 1.46624
3.83147 -0.55557 0
3.75785 -0.55557 0.747483
3.70711 -0.707107 0
3.63588 -0.707107 0.723221
-1.27386 -0.707107 -1.90647
-0.877452 -0.707107 -2.11836
-1.20477 -0.55557 -1.80307
-0.829861 -0.55557 -2.00346
-1.20477 -0.55557 -1.80307
-0.829861 -0.55557 -2.00346
-1.15343 -0.382683 -1.72623
-0.794497 -0.382683 -1.91809
-1.15343 -0.382683 -1.72623
-0.794497 -0.382683 -1.91809
-1.12182 -0.19509 -1.67892
-0.77272 -0.19509 -1.86551
-1.12182 -0.19509 -1.67892
-0.77272 -0.19509 -1.86551
-1.11114 1.22465e-16 -1.66294
-0.765367 1.22465e-16 -1.84776
2.24884 -0.707107 0.447321
2.11836 -0.707107 0.877452
2.12686 -0.55557 0.423059
2.00346 -0.55557 0.829861
2.16853 -0.55557 0
2.12686 -0.55557 0.423059
2.07612 -0.382683 0
2.03623 -0.382683 0.405031
2.12686 -0.55557 0.423059
2.00346 -0.55557 0.829861
2.03623 -0.382683 0.405031
1.91809 -0.382683 0.794497
-1.5016 -0.382683 3.62519
-2.17999 -0.382683 3.26259
-1.46624 -0.55557 3.53982
-2.12865 -0.55557 3.18575
-2.17999 -0.382683 3.26259
-2.7746 -0.382683 2.7746
-2.12865 -0.55557 3.18575
-2.70926 -0.55557 2.70926
-1.46624 -0.55557 3.53982
-2.12865 -0.55557 3.18575
-1.41865 -0.707107 3.42492
-2.05956 -0.707107 3.08235
-2.12865 -0.55557 3.18575
-2.70926 -0.55557 2.70926
-2.05956 -0.707107 3.08235
-2.62132 -0.707107 2.62132
0.510613 -0.92388 -2.56703
1.0016 -0.92388 -2.41809
0.476885 -0.83147 -2.39746
0.935443 -0.83147 -2.25836
0.476885 -0.83147 -2.39746
0.935443 -0.83147 -2.25836
0.447321 -0.707107 -2.24884
0.877452 -0.707107 -2.11836
1.0016 -0.92388 -2.41809
1.4541 -0.92388 -2.17622
0.935443 -0.83147 -2.25836
1.35805 -0.83147 -2.03247
1.4541 -0.92388 -2.17622
1.85072 -0.92388 -1.85072
1.35805 -0.83147 -2.03247
1.72847 -0.83147 -1.72847
0.935443 -0.83147 -2.25836
1.35805 -0.83147 -2.03247
0.877452 -0.707107 -2.11836
1.27386 -0.707107 -1.90647
0.447321 -0.707107 -2.24884
0.877452 -0.707107 -2.11836
0.423059 -0.55557 -2.12686
0.829861 -0.55557 -2.00346
-3.98353e-16 -0.55557 -2.16853
[...]
POINT_DATA 11488
SCALARS U double 1
LOOKUP_TABLE default
0.000663539 -0.00130397 0.0015985 5.93152e-05 0.0015985 5.93152e-05 0.0027416 0.00185288 0.00274142 0.00185363 0.00159874 5.99293e-05 0.00159874 5.99293e-05 0.000663816 -0.00130363 -0.00158469 -0.00183138 -0.0013659 -0.00175046 -0.00183138 -0.00206968 -0.00175046 -0.00190753 -0.0013659 -0.00175046 -0.000664496 -0.00142542 -0.00175046 -0.00190753 -0.00142542 -0.0014084 0.00918222 0.00939948 0.0115953 0.0108666 0.0115953 0.0108666 0.012815 0.0123752 -0.00346489 -0.00119858 -0.00351746 -0.00137543 -8.73482e-05 -0.000664496 7.53413e-05 0.000125191 7.53413e-05 0.000125191 0.000371118 0.000859879 0.000314613 0.00642938 0.00142789 0.00705895 0.00142789 0.00705895 -0.000431711 0.008155 0.0128339 0.0130154 0.0116963 0.0110228 0.0116963 0.0110228 0.00934735 0.00951975 -0.000431711 0.008155 -0.000456044 0.00906154 -0.000456044 0.00906154 -0.000551259 0.00901852 -0.000599694 0.00904361 -0.00042132 0.0091446 -0.00042132 0.0091446 -0.00037256 0.00825329 -0.00351746 -0.00137543 -0.00355871 -0.00111166 -0.00137543 0.00362816 -0.00111166 0.0036392 -0.00037256 0.00825329 0.00145846 0.00719179 0.00145846 0.00719179 0.000758193 0.00632184 -9.851e-05 -0.00194606 -3.561e-05 -0.00193554 -0.00194606 -0.00351746 -0.00193554 -0.00355871 -3.561e-05 -0.00193554 0.00011864 -0.00187693 -0.000276322 0.0029848 8.05723e-05 0.00278709 -0.00332241 0.000758193 -0.00364347 0.0007441 0.000758193 0.00632184 0.0007441 0.0047399 0.0007441 0.0047399 0.000870459 0.0037923 0.00011864 -0.00187693 0.000327408 -0.00183061 0.0143076 0.0156045 0.0128339 0.0130154 0.00156895 0.00538782 0.0020941 0.00563009 0.0020941 0.00563009 0.00256223 0.00560686 0.00290703 0.00509171 0.0029848 0.00414938 0.00509171 0.00532266 0.00414938 0.00419843 0.00290151 0.00403646 0.00284159 0.00505251 0.00403646 0.00427644 0.00505251 0.00536527 0.000123082 -0.00194614 -4.73981e-05 -0.00192977 -0.00194614 -0.00322303 -0.00192977 -0.00346489 -4.73981e-05 -0.00192977 -9.851e-05 -0.00194606 -0.00192977 -0.00346489 -0.00194606 -0.00351746 -0.00367763 -0.00242167 -0.00368653 -0.00240615 -0.00242167 0.000687014 -0.00240615 0.000781927 -0.00368653 -0.00240615 -0.00372653 -0.00233756 -0.00240615 0.000781927 -0.00233756 0.000933663 -0.0027071 -0.00130021 -0.00274613 -0.00130672 -0.00130021 0.00335368 -0.00130672 0.00352921 0.000781927 0.00401403 0.000933663 0.00415666 -0.00372653 -0.00233756 -0.00377355 -0.00220599 -0.00233756 0.000933663 -0.00220599 0.00117351 -0.00220599 0.00117351 -0.00191222 0.00145585 0.000933663 0.00415666 0.00117351 0.00433399 0.00117351 0.00433399 0.00145585 0.00446348 0.00256901 0.00562096 0.00215867 0.00566657 0.00215867 0.00566657 0.00162183 0.00542705 0.00347744 0.000548399 0.00361154 0.000623245 0.00361154 0.000623245 0.00397536 0.000838301 0.00397536 0.000838301 0.00445451 0.00115734 0.00445451 0.00115734 0.00488681 0.00151936 -0.00191222 0.00145585 -0.00162228 0.00175222 -0.00162228 0.00175222 -0.00140492 0.00204128 0.00145585 0.00446348 0.00175222 0.00450524 0.00175222 0.00450524 0.00204128 0.00431001 0.00450524 0.00582875 0.00431001 0.00549353 -0.00375949 -0.00140492 -0.00379692 -0.00114153 -0.00140492 0.00204128 -0.00114153 0.00223213 -0.00114153 0.00223213 -0.000929401 0.00230857 0.00204128 0.00431001 0.00223213 0.00394132 0.00223213 0.00394132 0.00230857 0.00340976 0.00394132 0.00485351 0.00340976 0.00398341 -0.000929687 0.00230696 -0.0011411 0.00222991 -0.00379665 -0.0011411 -0.00375951 -0.00140469 -0.0011411 0.00222991 -0.00140469 0.00204216 0.00230696 0.0034076 0.00222991 0.00394932 0.0034076 0.00397026 0.00394932 0.00480664 0.00222991 0.00394932 0.00204216 0.0043114 0.000815813 0.00357582 0.000607395 0.00451761 -0.00383976 0.000607395 -0.00337711 0.000314613 0.00488652 0.00151871 0.00445431 0.001157 0.00445431 0.001157 0.00397533 0.000838529 0.00397533 0.000838529 0.00361161 0.000623699 0.00361161 0.000623699 0.00347744 0.000548399 -0.00127279 0.00422214 -0.00128968 0.00361189 -0.00274609 -0.00128968 -0.00270213 -0.00126065 -0.00128968 0.00361189 -0.00126065 0.00347646 -0.000664496 -0.00142542 0.000125191 -0.000731232 -0.00142542 -0.0014084 -0.000731232 -0.000632065 0.000125191 -0.000731232 0.000859879 0.000205314 -0.000731232 -0.000632065 0.000205314 0.000238995 -0.00140469 0.00204216 -0.00162177 0.00175387 -0.00162177 0.00175387 -0.00191157 0.00145803 0.00204216 0.0043114 0.00175387 0.00450784 0.0043114 0.00548657 0.00450784 0.00582828 0.00175387 0.00450784 0.00145803 0.00446662 -0.00191157 0.00145803 -0.00220535 0.00117573 -0.0037738 -0.00220535 -0.00372658 -0.00233703 -0.00220535 0.00117573 -0.00233703 0.000935437 0.00145803 0.00446662 0.00117573 0.00433707 0.00117573 0.00433707 0.000935437 0.00415909 -0.00372658 -0.00233703 -0.00368649 -0.00240585 -0.00233703 0.000935437 -0.00240585 0.000782905 -0.00368649 -0.00240585 -0.00367763 -0.00242167 -0.00240585 0.000782905 -0.00242167 0.000687014 0.000935437 0.00415909 0.000782905 0.00401535 0.000738031 4.16937e-05 0.00134972 0.000898398 0.00134972 0.000898398 0.0020344 0.00189698 0.00585346 0.00466721 0.00582875 0.00482572 0.00466721 0.00130219 0.00482572 0.0016187 0.00582875 0.00482572 0.00549353 0.00477563 0.00482572 0.0016187 0.00477563 0.00181997 0.00485351 0.00441757 0.00398341 0.0038004 0.00441757 0.00188672 0.0038004 0.0017468 0.00548657 0.00475194 0.00582828 0.00481617 0.00475194 0.00180257 0.00481617 0.00160648 0.00582828 0.00481617 0.00585568 0.00466271 0.00481617 0.00160648 0.00466271 0.00129895 0.0052039 0.00367941 0.00528542 0.00377672 0.00367941 0.000465499 0.00377672 0.000521337 0.00528542 0.00377672 0.00549013 0.00403279 0.00377672 0.000521337 0.00403279 0.000710261 0.000465499 -0.00221252 0.000521337 -0.00221586 -0.00221252 -0.00270019 -0.00221586 -0.00268464 0.000521337 -0.00221586 0.000710261 -0.00216557 -0.00221586 -0.00268464 -0.00216557 -0.0027071 0.00549013 0.00403279 0.00571964 0.00436369 0.00403279 0.000710261 0.00436369 0.000996934 0.00571964 0.00436369 0.00585346 0.00466721 0.00436369 0.000996934 0.00466721 0.00130219 0.000710261 -0.00216557 0.000996934 -0.00207591 -0.00216557 -0.0027071 -0.00207591 -0.00274613 0.000996934 -0.00207591 0.00130219 -0.00198683 -0.00207591 -0.00274613 -0.00198683 -0.00282418 0.00585568 0.00466271 0.00572143 0.00436133 0.00466271 0.00129895 0.00436133 0.000989356 0.00572143 0.00436133 0.00549148 0.00403065 0.00436133 0.000989356 0.00403065 0.000704737 0.00129895 -0.00201117 0.000989356 -0.00207724 -0.00201117 -0.00271771 -0.00207724 -0.00274609 0.000989356 -0.00207724 0.000704737 -0.00217022 -0.00207724 -0.00274609 -0.00217022 -0.00270213 0.00549148 0.00403065 0.00528614 0.00377553 0.00403065 0.000704737 0.00377553 0.0005182 0.00528614 0.00377553 0.0052039 0.00367941 0.00377553 0.0005182 0.00367941 0.000465499 0.000704737 -0.00217022 0.0005182 -0.00221884 -0.00217022 -0.00270213 -0.00221884 -0.002683 0.0005182 -0.00221884 0.000465499 -0.00221252 -0.00221884 -0.002683 -0.00221252 -0.00270019 4.16937e-05 0.000603102 0.000898398 0.00133673 0.000603102 0.000628523 0.00133673 0.000965382 0.000898398 0.00133673 0.00189698 0.00217709 0.000628523 -0.00173938 0.000965382 -0.00177712 -0.00173938 -0.00337711 -0.00177712 -0.00277884 0.000965382 -0.00177712 0.00127104 -0.00168276 -0.00177712 -0.00277884 -0.00168276 -0.00279364 0.00189698 0.00217709 0.00296289 0.00302478 0.00217709 0.00127104 0.00302478 0.00155939 0.00296289 0.00302478 0.00397026 0.00380477 0.00302478 0.00155939 0.00380477 0.00177091 0.00127104 -0.00168276 0.00155939 -0.00167892 -0.00168276 -0.00279364 -0.00167892 -0.00269062 0.00155939 -0.00167892 0.00177091 -0.00166692 -0.00167892 -0.00269062 -0.00166692 -0.00275509 0.00398341 0.0038004 0.00296844 0.00300294 0.0038004 0.0017468 0.00300294 0.00152845 0.00296844 0.00300294 0.00190143 0.00214385 0.00300294 0.00152845 0.00214385 0.00124387 0.0017468 -0.00166554 0.00152845 -0.00167328 -0.00166554 -0.00273161 -0.00167328 -0.00266505 0.00152845 -0.00167328 0.00124387 -0.00166961 -0.00167328 -0.00266505 -0.00166961 -0.00273579 0.00190143 0.00214385 0.000913442 0.00127766 0.000913442 0.00127766 7.67428e-05 0.000537423 0.00127766 0.000941512 0.000537423 0.000597092 0.00124387 -0.00166961 0.000941512 -0.00174573 -0.00166961 -0.00273579 -0.00174573 -0.0026664 0.000941512 -0.00174573 0.000597092 -0.00167045 -0.00174573 -0.0026664 -0.00167045 -0.00332241 0.000597092 -0.00167045 0.00028071 -0.00171959 -0.00167045 -0.00332241 -0.00171959 -0.00364347 0.00028071 -0.00171959 0.000123082 -0.00194614 0.0020344 0.00189698 0.00272887 0.00296289 0.00272887 0.00296289 0.0034076 0.00397026 0.00340976 0.00398341 0.00273426 0.00296844 0.00273426 0.00296844 0.00204236 0.00190143 0.00204236 0.00190143 0.0013593 0.000913442 0.0013593 0.000913442 0.000747376 7.67428e-05 0.000371118 0.000859879 0.000680452 0.00151521 5.93152e-05 0.000206982 0.000956097 0.00109229 0.000206982 0.000319103 0.00109229 0.00109946 0.000956097 0.00109229 0.00185288 0.00205661 0.00185288 0.00205661 0.00289745 0.00304308 0.00289745 0.00304308 0.00398626 0.00392816 0.00398685 0.00392844 0.00289815 0.00304326 0.00289815 0.00304326 0.00185363 0.00205664 0.00185363 0.00205664 0.000956778 0.00109219 0.000956778 0.00109219 5.99293e-05 0.0002068 0.00109219 0.00109837 0.0002068 0.000317991 0.000859879 0.000205314 0.00151521 0.00112382 0.000205314 0.000238995 0.00112382 0.00108546 0.00151521 0.00112382 0.00214875 0.00196704 0.00112382 0.00108546 0.00196704 0.00199728 0.000761641 0.00214875 0.000506287 0.00266515 0.000506287 0.00266515 3.89977e-05 0.00290151 -0.00257144 0.000386274 -0.00248382 0.000521954 -0.00248382 0.000521954 -0.00235167 0.000749159 0.00214875 0.00196704 0.00266515 0.00292204 0.00196704 0.00199728 0.00292204 0.00310888 0.00266515 0.00292204 0.00290151 0.00403646 0.00292204 0.00310888 0.00403646 0.00427644 0.0029848 0.00414938 0.00278709 0.00306558 0.00414938 0.00419843 0.00306558 0.00301227 0.00278709 0.00306558 0.00229575 0.00208465 0.00306558 0.00301227 0.00208465 0.0019146 0.000427257 0.00229575 0.000480731 0.00163537 0.000480731 0.00163537 0.000255032 0.00092085 0.00344465 0.00386914 0.00362816 0.00365988 0.00229575 0.00208465 0.00163537 0.00118048 0.00208465 0.0019146 0.00118048 0.00103976 0.00163537 0.00118048 0.00092085 0.000221308 0.00118048 0.00103976 0.000221308 0.000224029 0.000255032 0.00092085 -2.72583e-05 0.000167833 -2.72583e-05 0.000167833 -8.8913e-05 -0.000606493 0.00357582 0.00394755 0.00451761 0.00465185 -0.00282418 -0.000881796 -0.00255131 -0.00126448 -0.00255131 -0.00126448 -0.0024495 -0.00147725 -0.00126448 0.00576608 -0.00147725 0.00696491 -0.00159124 0.00126097 -0.00124995 0.00170196 -0.00415257 -0.00124995 -0.00404149 -0.00101226 -0.00124995 0.00170196 -0.00101226 0.00205086 -0.00404323 -0.00101168 -0.00415458 -0.00124933 -0.00101168 0.0020546 -0.00124933 0.00170628 -0.00124933 0.00170628 -0.00159057 0.00126501 0.000548399 -0.00238289 0.000623245 -0.00237636 -0.00238289 -0.00367763 -0.00237636 -0.00368653 0.000623245 -0.00237636 0.000838301 -0.00235221 -0.00237636 -0.00368653 -0.00235221 -0.00372653 0.000838301 -0.00235221 0.00115734 -0.00229697 -0.00235221 -0.00372653 -0.00229697 -0.00377355 0.00115734 -0.00229697 0.00151936 -0.00220785 -0.00229697 -0.00377355 -0.00220785 -0.00370023 0.00151936 -0.00220785 0.00184421 -0.00205143 -0.00220785 -0.00370023 -0.00205143 -0.00368843 0.00184421 -0.00205143 0.00216395 -0.00186154 -0.00205143 -0.00368843 -0.00186154 -0.00375949 0.00216395 -0.00186154 0.00239709 -0.00167376 -0.00186154 -0.00375949 -0.00167376 -0.00379692 0.00239709 -0.00167376 0.00246764 -0.00152717 -0.00167376 -0.00379692 -0.00152717 -0.0038378 0.00246794 -0.00152639 0.00239703 -0.00167353 -0.00152639 -0.00383699 -0.00167353 -0.00379665 0.00239703 -0.00167353 0.00216359 -0.00186184 -0.00167353 -0.00379665 -0.00186184 -0.00375951 0.00216359 -0.00186184 0.00184361 -0.00205206 -0.00186184 -0.00375951 -0.00205206 -0.00368874 0.00184361 -0.00205206 0.00151871 -0.00220847 -0.00205206 -0.00368874 -0.00220847 -0.00370061 0.00151871 -0.00220847 0.001157 -0.00229714 -0.00220847 -0.00370061 -0.00229714 -0.0037738 0.001157 -0.00229714 0.000838529 -0.00235184 -0.00229714 -0.0037738 -0.00235184 -0.00372658 0.000838529 -0.00235184 0.000623699 -0.0023759 -0.00235184 -0.00372658 -0.0023759 -0.00368649 0.000623699 -0.0023759 0.000548399 -0.00238289 -0.0023759 -0.00368649 -0.00238289 -0.00367763 -0.00146423 -0.00140683 -0.00134973 -0.00139774 -0.00140683 -0.00449996 -0.00139774 -0.0044781 -0.00134973 -0.00139774 -0.000997272 -0.00136116 -0.00139774 -0.0044781 -0.00136116 -0.00441619 -0.000997272 -0.00136116 -0.000412046 -0.00130212 -0.00136116 -0.00441619 -0.00130212 -0.00433266 -0.00130212 -0.00433266 -0.00127278 -0.00425072 0.000319103 -0.00127278 0.00109946 -0.00125455 0.00109946 -0.00125455 0.00178577 -0.00129323 -0.00125455 -0.00415257 -0.00129323 -0.00404149 0.00225516 -0.00130565 0.00246794 -0.00152639 0.00246764 -0.00152717 0.00225451 -0.00130695 0.00178484 -0.001295 0.00109837 -0.00125658 -0.001295 -0.00404323 -0.00125658 -0.00415458 0.00109837 -0.00125658 0.000317991 -0.00127484 -0.00127484 -0.00425278 -0.00130394 -0.00433448 -0.00041303 -0.00130394 -0.000998002 -0.0013625 -0.00130394 -0.00433448 -0.0013625 -0.00441754 -0.000998002 -0.0013625 -0.00135012 -0.00139845 -0.0013625 -0.00441754 -0.00139845 -0.00447883 -0.00135012 -0.00139845 -0.00146423 -0.00140683 -0.00139845 -0.00447883 -0.00140683 -0.00449996 -0.00449996 -0.00238239 -0.0044781 -0.0023158 -0.00238239 -2.71523e-05 -0.0023158 9.47616e-05 -0.0044781 -0.0023158 -0.00441619 -0.00214469 -2.71523e-05 -0.000591474 9.47616e-05 -0.000494563 -0.000591474 -0.00140058 -0.000494563 -0.00131511 -0.000494563 -0.00131511 -0.000229816 -0.00105787 -0.00441619 -0.00214469 -0.00433266 -0.00189375 -0.00214469 0.000378451 -0.00189375 0.000766587 -0.00433266 -0.00189375 -0.00425072 -0.00159124 -0.00189375 0.000766587 -0.00159124 0.00126097 0.000378451 -0.000229816 0.000766587 0.000182426 -0.000229816 -0.00105787 0.000182426 -0.000602923 0.000766587 0.000182426 0.00126097 0.000738031 0.000182426 -0.000602923 0.000738031 4.16937e-05 -0.00425278 -0.00159057 -0.00433448 -0.00189312 -0.00159057 0.00126501 -0.00189312 0.000770452 -0.00433448 -0.00189312 -0.00441754 -0.00214416 -0.00189312 0.000770452 -0.00214416 0.000381144 0.00126501 0.000747376 0.000770452 0.000190748 0.000747376 7.67428e-05 0.000190748 -0.000559919 0.000770452 0.000190748 0.000381144 -0.000222668 0.000190748 -0.000559919 -0.000222668 -0.0010341 -0.00441754 -0.00214416 -0.00447883 -0.00231549 -0.00447883 -0.00231549 -0.00449996 -0.00238239 -0.00231549 9.59572e-05 -0.00238239 -2.71523e-05 -0.000222668 -0.0010341 -0.000489788 -0.00131244 9.59572e-05 -0.000489788 -2.71523e-05 -0.000591474 -0.000489788 -0.00131244 -0.000591474 -0.00140058 -0.00105787 -0.000387608 -0.000602923 -1.11809e-05 -0.000602923 -1.11809e-05 4.16937e-05 0.000603102 -0.0024495 -0.00147725 -0.00270764 -0.000702057 -0.00147725 0.00696491 -0.000702057 0.0082498 -0.00270764 -0.000702057 -0.00273161 -0.000599694 -0.000702057 0.0082498 -0.000599694 0.00904361 -0.00275509 -0.000551259 -0.0026251 -0.000967429 -0.000551259 0.00901852 -0.000967429 0.00877947 -0.0026251 -0.000967429 -0.0025886 -0.000989245 -0.0025886 -0.000989245 -0.00269603 -0.000705203 -0.00269603 -0.000705203 -0.00271771 -0.00127279 0.00395773 0.00011564 0.00413341 0.000150382 0.00413341 0.000150382 0.00462072 0.000284197 0.00462072 0.000284197 0.00525525 0.000579306 0.00525525 0.000579306 0.00581379 0.0009867 0.00581169 0.000984513 0.00525344 0.00057784 0.00525344 0.00057784 0.00461858 0.000283408 0.00599217 0.00160841 0.00580223 0.00216256 0.0009867 -0.00316644 0.00160841 -0.00292549 -0.00316644 -0.00381787 -0.00292549 -0.00369932 -0.00292549 -0.00369932 -0.0026664 -0.00367893 0.0062944 0.00580223 0.00532266 0.00524497 0.00580223 0.00216256 0.00524497 0.00252219 0.00532266 0.00524497 0.00419843 0.00446497 0.00524497 0.00252219 0.00446497 0.0026339 -0.0026664 -0.00367893 -0.00263523 -0.00376237 0.00252219 -0.00263523 0.0026339 -0.00256699 0.00427644 0.00445928 0.00536527 0.00524037 0.00445928 0.00262988 0.00524037 0.00251864 0.00536527 0.00524037 0.00631157 0.0057979 0.00524037 0.00251864 0.0057979 0.00215932 0.00262988 -0.0025663 0.00251864 -0.00263537 -0.00263537 -0.00376142 -0.00266721 -0.00367812 0.0057979 0.00215932 0.0059889 0.00160559 -0.00266721 -0.00367812 -0.00292641 -0.00369888 0.00160559 -0.00292641 0.000984513 -0.00316733 -0.00292641 -0.00369888 -0.00316733 -0.00381775 -0.00393465 -0.00201141 -0.00391687 -0.001898 -0.00201141 0.000941679 -0.001898 0.00111232 -0.00391687 -0.001898 -0.00387035 -0.00159354 -0.001898 0.00111232 -0.00159354 0.00156097 0.000941679 0.00379686 0.00111232 0.00395583 0.00379686 0.00506108 0.00395583 0.00520555 0.00111232 0.00395583 0.00156097 0.0043513 0.00395583 0.00520555 0.0043513 0.00556586 -0.00387035 -0.00159354 -0.00380679 -0.00118592 -0.00159354 0.00156097 -0.00118592 0.00213721 -0.00380679 -0.00118592 -0.00381787 -0.000734703 -0.00118592 0.00213721 -0.000734703 0.00267895 0.00156097 0.0043513 0.00213721 0.00479425 0.0043513 0.00556586 0.00479425 0.00596252 0.00213721 0.00479425 0.00267895 0.00510482 0.00479425 0.00596252 0.00510482 0.00619852 -0.00381787 -0.000734703 -0.00369932 -0.000341806 -0.000734703 0.00267895 -0.000341806 0.00310108 -0.00369932 -0.000341806 -0.00367893 -1.81315e-05 -0.000341806 0.00310108 -1.81315e-05 0.00336666 0.00267895 0.00510482 0.00310108 0.00516647 0.00510482 0.00619852 0.00516647 0.0061284 0.00310108 0.00516647 0.00336666 0.0049513 -0.00367893 -1.81315e-05 -0.00376237 0.00025318 -1.81315e-05 0.00336666 0.00025318 0.00345636 0.00025318 0.00345636 0.000486764 0.00339149 0.0049513 0.00569679 0.00445915 0.00495908 0.00445915 0.00495908 0.0038286 0.00398685 0.000488082 0.00339217 0.000254527 0.00345713 -0.00376142 0.000254527 -0.00367812 -1.70082e-05 0.000254527 0.00345713 -1.70082e-05 0.00336743 0.00382852 0.00398626 0.00445925 0.00495868 0.00445925 0.00495868 0.00495155 0.0056966 -0.00367812 -1.70082e-05 -0.00369888 -0.000340983 -1.70082e-05 0.00336743 -0.000340983 0.00310177 -0.00369888 -0.000340983 -0.00381775 -0.000734189 -0.000340983 0.00310177 -0.000734189 0.00267952 0.00336743 0.00495155 0.00310177 0.00516684 0.00310177 0.00516684 0.00267952 0.00510526 0.00516684 0.00612841 0.00510526 0.00619865 -0.00381775 -0.000734189 -0.00380687 -0.00118565 -0.000734189 0.00267952 -0.00118565 0.00213765 -0.00380687 -0.00118565 -0.00387048 -0.00159341 -0.00118565 0.00213765 -0.00159341 0.00156126 0.00267952 0.00510526 0.00213765 0.00479465 0.00510526 0.00619865 0.00479465 0.00596269 0.00213765 0.00479465 0.00156126 0.00435161 0.00479465 0.00596269 0.00435161 0.005566 -0.00387048 -0.00159341 -0.00391695 -0.00189795 -0.00159341 0.00156126 -0.00189795 0.00111247 -0.00391695 -0.00189795 -0.00393465 -0.00201141 -0.00189795 0.00111247 -0.00201141 0.000941679 0.00156126 0.00435161 0.00111247 0.00395599 0.00435161 0.005566 0.00395599 0.00520562 0.00111247 0.00395599 0.000941679 0.00379686 0.00395599 0.00520562 0.00379686 0.00506108 -0.00100042 0.000278347 -0.000950757 0.000382604 -0.000950757 0.000382604 -0.000801346 0.000663539 0.000278347 -0.000818203 0.000382604 -0.000681284 -0.000818203 -0.00184 -0.000681284 -0.00170224 0.000382604 -0.000681284 0.000663539 -0.000320216 -0.000681284 -0.00170224 -0.000320216 -0.00130397 -0.000801346 0.000663539 -0.000587951 0.00113102 -0.00367076 -0.000587951 -0.00362244 -0.000214724 -0.000587951 0.00113102 -0.000214724 0.0015985 -0.0019104 0.00156895 -0.001507 0.0020941 -0.001507 0.0020941 -0.00101523 0.00256223 -0.00362244 -0.000214724 -0.00357125 0.000184248 -0.000214724 0.0015985 0.000184248 0.00217005 -0.00357125 0.000184248 -0.00355069 0.000456779 0.000184248 0.00217005 0.000456779 0.0027416 0.00493827 0.00619847 0.00700463 0.00768811 0.00619847 0.0073526 0.00768811 0.00897295 0.00700463 0.00768811 0.00918222 0.00939948 0.00768811 0.00897295 0.00939948 0.0101107 0.000456779 0.0027416 0.000602112 0.00313461 0.000602112 0.00313461 0.000488082 0.00339217 0.0027416 0.00229724 0.00313461 0.00308