# vtk DataFile Version 3.0
#This file was generated by the deal.II library on 2023/3/1 at 3:09:44
ASCII
DATASET UNSTRUCTURED_GRID

FIELD FieldData 2
CYCLE 1 1 int
67
TIME 1 1 double
0.134
POINTS 11644 double
-1.41421 1.22465e-16 1.41421
-1.84776 1.22465e-16 0.765367
-1.46804 0.382683 1.46804
-1.91809 0.382683 0.794497
-1.84776 1.22465e-16 0.765367
-2 0 0
-1.91809 0.382683 0.794497
-2.07612 0.382683 2.54251e-16
-1.91809 0.382683 0.794497
-2.07612 0.382683 2.54251e-16
-2.11836 0.707107 0.877452
-2.29289 0.707107 2.80798e-16
-1.85072 0.92388 1.85072
-2.41809 0.92388 1.0016
-2.12132 1 2.12132
-2.77164 1 1.14805
-2.12132 -1 2.12132
-2.77164 -1 1.14805
-1.85072 -0.92388 1.85072
-2.41809 -0.92388 1.0016
2.11836 -0.707107 0.877452
1.62132 -0.707107 1.62132
1.91809 -0.382683 0.794497
1.46804 -0.382683 1.46804
1.91809 -0.382683 0.794497
1.46804 -0.382683 1.46804
1.84776 1.22465e-16 0.765367
1.41421 1.22465e-16 1.41421
-2.07612 0.382683 2.54251e-16
-1.91809 0.382683 -0.794497
-2.29289 0.707107 2.80798e-16
-2.11836 0.707107 -0.877452
-2.11836 -0.707107 0.877452
-2.29289 -0.707107 2.80798e-16
-1.91809 -0.382683 0.794497
-2.07612 -0.382683 2.54251e-16
-1.46804 -0.382683 1.46804
-1.91809 -0.382683 0.794497
-1.41421 1.22465e-16 1.41421
-1.84776 1.22465e-16 0.765367
-2.39192 -0.92388 2.39192
-3.12519 -0.92388 1.2945
-2.12132 -1 2.12132
-2.77164 -1 1.14805
3.42492 -0.707107 -1.41865
3.70711 -0.707107 0
3.12519 -0.92388 -1.2945
3.38268 -0.92388 0
2.39192 0.92388 -2.39192
3.12519 0.92388 -1.2945
2.62132 0.707107 -2.62132
3.42492 0.707107 -1.41865
3.12519 0.92388 -1.2945
3.38268 0.92388 0
3.42492 0.707107 -1.41865
3.70711 0.707107 0
1.91809 0.382683 -0.794497
2.07612 0.382683 0
2.11836 0.707107 -0.877452
2.29289 0.707107 0
2.11836 -0.707107 -0.877452
2.29289 -0.707107 0
1.91809 -0.382683 -0.794497
2.07612 -0.382683 0
1.46804 -0.382683 -1.46804
1.91809 -0.382683 -0.794497
1.41421 1.22465e-16 -1.41421
1.84776 1.22465e-16 -0.765367
1.91809 -0.382683 -0.794497
2.07612 -0.382683 0
1.84776 1.22465e-16 -0.765367
2 0 0
-2.7746 0.382683 2.7746
-3.62519 0.382683 1.5016
-2.82843 0 2.82843
-3.69552 0 1.53073
3.42492 0.707107 -1.41865
3.70711 0.707107 0
3.62519 0.382683 -1.5016
3.92388 0.382683 0
-2.12132 1 2.12132
-2.77164 1 1.14805
-2.39192 0.92388 2.39192
-3.12519 0.92388 1.2945
2.11836 0.707107 0.877452
1.90647 0.707107 1.27386
2.25836 0.83147 0.935443
2.03247 0.83147 1.35805
1.90647 0.707107 1.27386
1.62132 0.707107 1.62132
2.03247 0.83147 1.35805
1.72847 0.83147 1.72847
2.25836 0.83147 0.935443
2.03247 0.83147 1.35805
2.41809 0.92388 1.0016
2.17622 0.92388 1.4541
2.03247 0.83147 1.35805
1.72847 0.83147 1.72847
2.17622 0.92388 1.4541
1.85072 0.92388 1.85072
2.29289 0.707107 0
2.24884 0.707107 0.447321
2.44443 0.83147 0
2.39746 0.83147 0.476885
2.24884 0.707107 0.447321
2.11836 0.707107 0.877452
2.39746 0.83147 0.476885
2.25836 0.83147 0.935443
2.44443 0.83147 0
2.39746 0.83147 0.476885
2.61732 0.92388 0
2.56703 0.92388 0.510613
2.39746 0.83147 0.476885
2.25836 0.83147 0.935443
2.56703 0.92388 0.510613
2.41809 0.92388 1.0016
3 -1 0
2.94236 -1 0.585271
2.80491 -0.980785 0
2.75101 -0.980785 0.547211
2.80491 -0.980785 0
2.75101 -0.980785 0.547211
2.61732 -0.92388 0
2.56703 -0.92388 0.510613
2.61732 -0.92388 0
2.56703 -0.92388 0.510613
2.44443 -0.83147 0
2.39746 -0.83147 0.476885
2.44443 -0.83147 0
2.39746 -0.83147 0.476885
2.29289 -0.707107 0
2.24884 -0.707107 0.447321
2.07612 0.382683 0
2.03623 0.382683 0.405031
2.16853 0.55557 0
2.12686 0.55557 0.423059
2.03623 0.382683 0.405031
1.91809 0.382683 0.794497
2.12686 0.55557 0.423059
2.00346 0.55557 0.829861
2.16853 0.55557 0
2.12686 0.55557 0.423059
2.29289 0.707107 0
2.24884 0.707107 0.447321
2.12686 0.55557 0.423059
2.00346 0.55557 0.829861
2.24884 0.707107 0.447321
2.11836 0.707107 0.877452
-1.46804 0.382683 1.46804
-1.72623 0.382683 1.15343
-1.53338 0.55557 1.53338
-1.80307 0.55557 1.20477
-1.72623 0.382683 1.15343
-1.91809 0.382683 0.794497
-1.80307 0.55557 1.20477
-2.00346 0.55557 0.829861
-1.53338 0.55557 1.53338
-1.80307 0.55557 1.20477
-1.62132 0.707107 1.62132
-1.90647 0.707107 1.27386
-1.80307 0.55557 1.20477
-2.00346 0.55557 0.829861
-1.90647 0.707107 1.27386
-2.11836 0.707107 0.877452
1.0016 -0.92388 2.41809
0.510613 -0.92388 2.56703
0.935443 -0.83147 2.25836
0.476885 -0.83147 2.39746
0.935443 -0.83147 2.25836
0.476885 -0.83147 2.39746
0.877452 -0.707107 2.11836
0.447321 -0.707107 2.24884
-2.12132 -1 -2.12132
-1.66671 -1 -2.49441
-1.98337 -0.980785 -1.98337
-1.55832 -0.980785 -2.3322
-1.66671 -1 -2.49441
-1.14805 -1 -2.77164
-1.55832 -0.980785 -2.3322
-1.07339 -0.980785 -2.5914
-1.85072 -0.92388 1.85072
-2.17622 -0.92388 1.4541
-1.72847 -0.83147 1.72847
-2.03247 -0.83147 1.35805
-2.17622 -0.92388 1.4541
-2.41809 -0.92388 1.0016
-2.03247 -0.83147 1.35805
-2.25836 -0.83147 0.935443
-1.72847 -0.83147 1.72847
-2.03247 -0.83147 1.35805
-1.62132 -0.707107 1.62132
-1.90647 -0.707107 1.27386
-2.03247 -0.83147 1.35805
-2.25836 -0.83147 0.935443
-1.90647 -0.707107 1.27386
-2.11836 -0.707107 0.877452
-1.62132 -0.707107 1.62132
-1.90647 -0.707107 1.27386
-1.53338 -0.55557 1.53338
-1.80307 -0.55557 1.20477
-1.90647 -0.707107 1.27386
-2.11836 -0.707107 0.877452
-1.80307 -0.55557 1.20477
-2.00346 -0.55557 0.829861
-1.53338 -0.55557 1.53338
-1.80307 -0.55557 1.20477
-1.46804 -0.382683 1.46804
-1.72623 -0.382683 1.15343
-1.80307 -0.55557 1.20477
-2.00346 -0.55557 0.829861
-1.72623 -0.382683 1.15343
-1.91809 -0.382683 0.794497
1.2945 0.92388 3.12519
0.659929 0.92388 3.31769
1.36066 0.83147 3.28492
0.693657 0.83147 3.48725
-2.41809 0.92388 1.0016
-2.56703 0.92388 0.510613
-2.5914 0.980785 1.07339
-2.75101 0.980785 0.547211
-2.56703 0.92388 0.510613
-2.61732 0.92388 3.20529e-16
-2.75101 0.980785 0.547211
-2.80491 0.980785 3.43502e-16
-2.5914 0.980785 1.07339
-2.75101 0.980785 0.547211
-2.77164 1 1.14805
-2.94236 1 0.585271
-1.27386 0.707107 -1.90647
-0.877452 0.707107 -2.11836
-1.35805 0.83147 -2.03247
-0.935443 0.83147 -2.25836
-1.35805 0.83147 -2.03247
-0.935443 0.83147 -2.25836
-1.4541 0.92388 -2.17622
-1.0016 0.92388 -2.41809
-2.39192 -0.92388 -2.39192
-1.87932 -0.92388 -2.8126
-2.25927 -0.980785 -2.25927
-1.7751 -0.980785 -2.65662
-2.25927 -0.980785 -2.25927
-1.7751 -0.980785 -2.65662
-2.12132 -1 -2.12132
-1.66671 -1 -2.49441
-1.7751 -0.980785 -2.65662
-1.22271 -0.980785 -2.95188
-1.66671 -1 -2.49441
-1.14805 -1 -2.77164
-2.41809 -0.92388 1.0016
-2.56703 -0.92388 0.510613
-2.25836 -0.83147 0.935443
-2.39746 -0.83147 0.476885
-2.25836 -0.83147 0.935443
-2.39746 -0.83147 0.476885
-2.11836 -0.707107 0.877452
-2.24884 -0.707107 0.447321
-2.39746 -0.83147 0.476885
-2.44443 -0.83147 2.99356e-16
-2.24884 -0.707107 0.447321
-2.29289 -0.707107 2.80798e-16
1.91809 0.382683 0.794497
1.72623 0.382683 1.15343
2.00346 0.55557 0.829861
1.80307 0.55557 1.20477
1.72623 0.382683 1.15343
1.46804 0.382683 1.46804
1.80307 0.55557 1.20477
1.53338 0.55557 1.53338
2.00346 0.55557 0.829861
1.80307 0.55557 1.20477
2.11836 0.707107 0.877452
1.90647 0.707107 1.27386
1.80307 0.55557 1.20477
1.53338 0.55557 1.53338
1.90647 0.707107 1.27386
1.62132 0.707107 1.62132
-1.91809 -0.382683 0.794497
-2.03623 -0.382683 0.405031
-1.86551 -0.19509 0.77272
-1.98042 -0.19509 0.393929
-2.03623 -0.382683 0.405031
-2.07612 -0.382683 2.54251e-16
-1.98042 -0.19509 0.393929
-2.01921 -0.19509 2.47282e-16
-1.86551 -0.19509 0.77272
-1.98042 -0.19509 0.393929
-1.84776 1.22465e-16 0.765367
-1.96157 1.22465e-16 0.390181
-1.98042 -0.19509 0.393929
-2.01921 -0.19509 2.47282e-16
-1.96157 1.22465e-16 0.390181
-2 0 0
-1.90647 0.707107 1.27386
-2.11836 0.707107 0.877452
-2.03247 0.83147 1.35805
-2.25836 0.83147 0.935443
-1.72847 0.83147 1.72847
-2.03247 0.83147 1.35805
-1.85072 0.92388 1.85072
-2.17622 0.92388 1.4541
-2.03247 0.83147 1.35805
-2.25836 0.83147 0.935443
-2.17622 0.92388 1.4541
-2.41809 0.92388 1.0016
2.77164 -1 1.14805
2.49441 -1 1.66671
2.5914 -0.980785 1.07339
2.3322 -0.980785 1.55832
2.49441 -1 1.66671
2.12132 -1 2.12132
2.3322 -0.980785 1.55832
1.98337 -0.980785 1.98337
2.3322 -0.980785 1.55832
1.98337 -0.980785 1.98337
2.17622 -0.92388 1.4541
1.85072 -0.92388 1.85072
-2.11836 0.707107 0.877452
-2.24884 0.707107 0.447321
-2.25836 0.83147 0.935443
-2.39746 0.83147 0.476885
-2.24884 0.707107 0.447321
-2.29289 0.707107 2.80798e-16
-2.39746 0.83147 0.476885
-2.44443 0.83147 2.99356e-16
-2.25836 0.83147 0.935443
-2.39746 0.83147 0.476885
-2.41809 0.92388 1.0016
-2.56703 0.92388 0.510613
-2.39746 0.83147 0.476885
-2.44443 0.83147 2.99356e-16
-2.56703 0.92388 0.510613
-2.61732 0.92388 3.20529e-16
-2.62132 -0.707107 2.62132
-3.08235 -0.707107 2.05956
-2.51417 -0.83147 2.51417
-2.95635 -0.83147 1.97537
-3.08235 -0.707107 2.05956
-3.42492 -0.707107 1.41865
-2.95635 -0.83147 1.97537
-3.28492 -0.83147 1.36066
-2.51417 -0.83147 2.51417
-2.95635 -0.83147 1.97537
-2.39192 -0.92388 2.39192
-2.8126 -0.92388 1.87932
-2.95635 -0.83147 1.97537
-3.28492 -0.83147 1.36066
-2.8126 -0.92388 1.87932
-3.12519 -0.92388 1.2945
-2.77164 -1 1.14805
-2.94236 -1 0.585271
-2.5914 -0.980785 1.07339
-2.75101 -0.980785 0.547211
-2.94236 -1 0.585271
-3 -1 0
-2.75101 -0.980785 0.547211
-2.80491 -0.980785 3.43502e-16
-2.5914 -0.980785 1.07339
-2.75101 -0.980785 0.547211
-2.41809 -0.92388 1.0016
-2.56703 -0.92388 0.510613
-2.75101 -0.980785 0.547211
-2.80491 -0.980785 3.43502e-16
-2.56703 -0.92388 0.510613
-2.61732 -0.92388 3.20529e-16
2.41809 0.92388 1.0016
2.17622 0.92388 1.4541
2.5914 0.980785 1.07339
2.3322 0.980785 1.55832
2.17622 0.92388 1.4541
1.85072 0.92388 1.85072
2.3322 0.980785 1.55832
1.98337 0.980785 1.98337
2.5914 0.980785 1.07339
2.3322 0.980785 1.55832
2.77164 1 1.14805
2.49441 1 1.66671
2.3322 0.980785 1.55832
1.98337 0.980785 1.98337
2.49441 1 1.66671
2.12132 1 2.12132
1.85072 0.92388 1.85072
1.4541 0.92388 2.17622
1.98337 0.980785 1.98337
1.55832 0.980785 2.3322
1.4541 0.92388 2.17622
1.0016 0.92388 2.41809
1.55832 0.980785 2.3322
1.07339 0.980785 2.5914
1.98337 0.980785 1.98337
1.55832 0.980785 2.3322
2.12132 1 2.12132
1.66671 1 2.49441
[...]
POINT_DATA 11644
SCALARS U double 1
LOOKUP_TABLE default
0.00240051 0.00276635 0.00215256 0.00266614 0.00276635 0.00426813 0.00266614 0.00422412 0.00266614 0.00422412 0.00245729 0.00369539 0.00165999 0.00226292 0.00151755 0.00211123 0.0011775 0.00170844 0.00152803 0.00210076 0.0046025 0.00380554 0.00428415 0.00389862 0.00428415 0.00389862 0.0043564 0.00442743 0.00422412 0.00424329 0.00369539 0.00413006 0.00250684 0.00344168 0.00270026 0.00401497 0.00225862 0.00270026 0.00240051 0.00276635 0.000958671 0.00129345 0.0011775 0.00170844 0.00117644 0.000969741 0.00166964 0.0016463 0.00136707 0.00156802 0.0013945 0.00108907 0.00156802 0.00193094 0.00108907 0.00145332 0.00266978 0.00413932 0.00246542 0.00378207 0.00210504 0.0037585 0.00238343 0.00424867 0.00184353 0.00238343 0.00236346 0.00271012 0.00238343 0.00424867 0.00271012 0.00431027 0.00115783 0.000718359 0.00115398 0.000554958 0.00108907 0.00145332 0.000742619 0.00108841 0.00151755 0.00211123 0.00124733 0.00170776 0.0043533 0.00434079 0.00428722 0.00430275 0.00434079 0.00506477 0.00430275 0.00487134 0.00428722 0.00430275 0.00415648 0.00422053 0.00430275 0.00487134 0.00422053 0.00451779 0.00378207 0.00437547 0.00339581 0.00421237 0.00437547 0.0043533 0.00421237 0.00428722 0.00339581 0.00421237 0.00298168 0.00404931 0.00421237 0.00428722 0.00404931 0.00415648 0.00236438 0.00323985 0.0026607 0.00352636 0.0026607 0.00352636 0.00296609 0.00377073 0.00296609 0.00377073 0.00334239 0.00401991 0.00334239 0.00401991 0.0037585 0.00425654 0.00413932 0.00471703 0.0039607 0.00456647 0.00471703 0.00441974 0.00456647 0.00438631 0.0039607 0.00456647 0.00378207 0.00437547 0.00456647 0.00438631 0.00437547 0.0043533 0.00215256 0.00240935 0.00186671 0.00230202 0.00240935 0.00266614 0.00230202 0.00256172 0.00186671 0.00230202 0.00165622 0.00209083 0.00230202 0.00256172 0.00209083 0.00245729 0.00400676 0.00441418 0.0045147 0.00469496 0.0045147 0.00469496 0.00488003 0.00495865 0.00370686 0.00334162 0.00391492 0.00362582 0.00334162 0.00292017 0.00362582 0.00317837 0.00152803 0.00181439 0.00176515 0.00206564 0.00181439 0.00210076 0.00206564 0.00230813 0.00176515 0.00206564 0.00195543 0.0022921 0.00206564 0.00230813 0.0022921 0.00250684 0.00195543 0.0022921 0.00207597 0.00244263 0.0022921 0.00250684 0.00244263 0.00260355 0.00207597 0.00244263 0.00225862 0.00247944 0.00244263 0.00260355 0.00247944 0.00270026 0.0034836 0.0035373 0.00366822 0.00327778 0.00226292 0.0028325 0.00218707 0.00258459 0.0028325 0.00274423 0.00258459 0.0022691 0.00218707 0.00258459 0.00211123 0.00238255 0.00455676 0.00472081 0.00446527 0.00428751 0.00446527 0.00428751 0.00409297 0.00377992 0.00349273 0.00309386 0.00359822 0.00313493 0.00359822 0.00313493 0.00370686 0.00334162 0.00313493 0.00268795 0.00334162 0.00292017 0.00210076 0.00274594 0.00230813 0.00289293 0.00230813 0.00289293 0.00250684 0.00297426 0.00289293 0.00294088 0.00297426 0.00344168 0.00441974 0.0043061 0.00438631 0.00433695 0.0043061 0.00503163 0.00433695 0.00512196 0.00438631 0.00433695 0.0043533 0.00434079 0.00433695 0.00512196 0.00434079 0.00506477 0.00270026 0.00335762 0.0027333 0.0034221 0.00335762 0.00401497 0.0034221 0.00417143 0.0027333 0.0034221 0.00276635 0.00351724 0.0034221 0.00417143 0.00351724 0.00426813 0.00209083 0.00245729 0.00197188 0.00231902 0.0016171 0.00197188 0.00165999 0.00196145 0.00197188 0.00231902 0.00196145 0.00226292 0.00382731 0.00368438 0.00418327 0.00382403 0.00368438 0.00333038 0.00382403 0.00346979 0.00382403 0.00346979 0.00400856 0.00362203 0.00245729 0.00307634 0.00231902 0.00305526 0.00307634 0.00369539 0.00305526 0.00323298 0.00231902 0.00305526 0.00226292 0.0028325 0.00305526 0.00323298 0.0028325 0.00274423 0.000821186 0.000891963 0.00085445 0.00104015 0.000891963 0.000752462 0.00104015 0.00100062 0.00085445 0.00104015 0.000958671 0.00112606 0.00104015 0.00100062 0.00112606 0.00129345 0.00170844 0.00241609 0.0019046 0.00259132 0.00241609 0.00189875 0.00259132 0.0021225 0.0019046 0.00259132 0.00210076 0.00274594 0.00259132 0.0021225 0.00274594 0.00246718 0.00415648 0.00422053 0.00391316 0.00404359 0.00422053 0.00451779 0.00404359 0.00407464 0.00391316 0.00404359 0.00357937 0.00374082 0.00404359 0.00407464 0.00374082 0.00373934 0.00451779 0.00416545 0.00407464 0.00361762 0.00416545 0.00390213 0.00361762 0.00357195 0.00407464 0.00361762 0.00373934 0.00328005 0.00361762 0.00357195 0.00328005 0.00331164 0.0037585 0.00425654 0.00400359 0.00447208 0.00425654 0.0046025 0.00447208 0.00444332 0.00400359 0.00447208 0.00424867 0.00462107 0.00447208 0.00444332 0.00462107 0.00428415 0.00442743 0.0048131 0.00479443 0.0051035 0.0048131 0.00522616 0.0051035 0.00525214 0.00479443 0.0051035 0.00503163 0.00524163 0.0051035 0.00525214 0.00524163 0.00520885 0.00234314 0.00356984 0.00214166 0.00325654 0.00214166 0.00325654 0.00193094 0.00294577 0.0043564 0.00439192 0.00442451 0.00428924 0.00439192 0.00442743 0.00428924 0.00479443 0.00442451 0.00428924 0.00441974 0.0043061 0.00428924 0.00479443 0.0043061 0.00503163 0.00165907 0.00207981 0.00154951 0.00190229 0.00207981 0.00246542 0.00190229 0.00228422 0.00154951 0.00190229 0.00129888 0.00174073 0.00190229 0.00228422 0.00174073 0.00213274 0.00424867 0.00462107 0.00427947 0.00472333 0.00462107 0.00428415 0.00472333 0.00432028 0.00427947 0.00472333 0.00431027 0.00480163 0.00472333 0.00432028 0.00480163 0.0043564 0.00193094 0.00294577 0.00169213 0.00265315 0.00169213 0.00265315 0.00145332 0.00234399 0.00109191 0.00121597 0.00104993 0.00135658 0.00121597 0.00117644 0.00135658 0.00142304 0.00104993 0.00135658 0.00112507 0.00145314 0.00135658 0.00142304 0.00145314 0.00166964 0.00371447 0.00387079 0.00363562 0.00380715 0.00387079 0.00339265 0.00380715 0.0034275 0.00363562 0.00380715 0.0034799 0.00375562 0.00380715 0.0034275 0.00375562 0.00347694 0.00112507 0.00145314 0.00124288 0.00146505 0.00145314 0.00166964 0.00146505 0.00179219 0.00124288 0.00146505 0.0012112 0.00146003 0.00146505 0.00179219 0.00146003 0.00188102 0.00116828 0.00157821 0.00123423 0.00159616 0.00157821 0.00189373 0.00159616 0.00170472 0.00123423 0.00159616 0.00136707 0.00146754 0.00159616 0.00170472 0.00146754 0.00156802 0.00222093 0.00115398 0.0022695 0.00097836 0.0022695 0.00097836 0.00235244 0.000867692 0.00309388 0.00235244 0.00393417 0.00242806 0.00235244 0.000867692 0.00242806 0.000802241 0.00393417 0.00242806 0.00378248 0.00238804 0.00242806 0.000802241 0.00238804 0.000821186 0.00271012 0.00351019 0.00270241 0.00346472 0.00351019 0.00431027 0.00346472 0.0042315 0.00270241 0.00346472 0.00266978 0.00340455 0.00346472 0.0042315 0.00340455 0.00413932 0.000752462 0.00131087 0.00100062 0.00154203 0.00131087 0.000903265 0.00154203 0.00124368 0.00100062 0.00154203 0.00129345 0.00183813 0.00371682 0.00304267 0.00363524 0.00275105 0.00363524 0.00275105 0.00349278 0.00255846 0.00389664 0.00349278 0.00392703 0.00338497 0.00367403 0.00392703 0.00371447 0.00387079 0.00392703 0.00338497 0.00387079 0.00339265 0.00042743 0.00125783 0.000486688 0.00126886 0.00125783 0.000307357 0.00126886 0.000415752 0.00357937 0.00374082 0.00315608 0.00341165 0.00374082 0.00373934 0.00341165 0.00356709 0.00315608 0.00341165 0.00263071 0.00315111 0.00341165 0.00356709 0.00315111 0.00350277 0.00236346 0.00253679 0.00240929 0.00243625 0.00253679 0.00271012 0.00243625 0.00270241 0.00243625 0.00270241 0.00243074 0.00266978 0.00129345 0.00183813 0.00150094 0.00216361 0.00150094 0.00216361 0.00170844 0.00241609 0.00216361 0.00174321 0.00241609 0.00189875 0.00503163 0.00524163 0.00512196 0.00521685 0.00524163 0.00520885 0.00521685 0.00507223 0.00521685 0.00507223 0.00502485 0.00480119 0.00213889 0.00243074 0.00185874 0.00229974 0.00243074 0.00266978 0.00229974 0.0025676 0.00185874 0.00229974 0.00165907 0.00207981 0.00229974 0.0025676 0.00207981 0.00246542 0.00539004 0.00352731 0.00535025 0.00346366 0.00352731 0.00240051 0.00346366 0.00227653 0.00535025 0.00346366 0.00529843 0.00334585 0.00346366 0.00227653 0.00334585 0.00215256 0.00213274 0.00316026 0.00206815 0.00296527 0.00316026 0.00298168 0.00296527 0.00262387 0.00206815 0.00296527 0.00189373 0.0026966 0.00296527 0.00262387 0.0026966 0.00234314 0.00413006 0.00419667 0.004028 0.00416842 0.00419667 0.0044465 0.00416842 0.00456258 0.004028 0.00416842 0.00385766 0.00404502 0.00416842 0.00456258 0.00404502 0.00431944 0.00352831 0.00383866 0.00366203 0.00412126 0.00366203 0.00412126 0.00400676 0.00441418 0.00349278 0.00255846 0.00338497 0.00246308 0.00188102 0.00246579 0.00195882 0.00273536 0.00195882 0.00273536 0.00201147 0.00296832 0.00273536 0.0026607 0.00296832 0.00296609 0.00385766 0.00404502 0.00361859 0.00385545 0.00404502 0.00431944 0.00385545 0.00379587 0.00361859 0.00385545 0.00324958 0.00358993 0.00529843 0.00334585 0.00511259 0.00324163 0.00334585 0.00215256 0.00324163 0.00186671 0.00511259 0.00324163 0.00486348 0.00309881 0.00324163 0.00186671 0.00309881 0.00165622 0.00101227 0.00126864 0.00077075 0.0010229 0.00126864 0.000826941 0.0010229 0.000813617 0.00077075 0.0010229 0.000718359 0.000803902 0.0010229 0.000813617 0.000803902 0.000732948 0.00272102 0.0031395 0.00317086 0.00345312 0.0031395 0.00370686 0.00345312 0.00391492 0.00317086 0.00345312 0.00370301 0.00383241 0.00345312 0.00391492 0.00383241 0.00411776 0.00261799 0.00354598 0.00265144 0.00367403 0.00265144 0.00367403 0.0027223 0.00371447 0.00318893 0.00365709 0.00306553 0.00329783 0.00486348 0.00309881 0.00455373 0.00286778 0.00309881 0.00165622 0.00286778 0.0016171 0.00455373 0.00286778 0.00385829 0.00271493 0.00286778 0.0016171 0.00271493 0.00165999 0.000718359 0.000803902 0.000636658 0.000697192 0.000803902 0.000732948 0.000697192 0.000582453 0.000636658 0.000697192 0.000554958 0.000730299 0.000697192 0.000582453 0.000730299 0.00045549 0.000903265 0.00169902 0.00124368 0.00208645 0.00124368 0.00208645 0.00154859 0.00242488 0.00154859 0.00242488 0.00174321 0.00267079 0.00174321 0.00267079 0.00189875 0.00286603 0.00211426 0.00271835 0.00241825 0.00291996 0.00271835 0.00349273 0.00291996 0.00359822 0.00241825 0.00291996 0.00272102 0.0031395 0.00291996 0.00359822 0.0031395 0.00370686 0.00442235 0.00429873 0.0043258 0.00424584 0.00429873 0.00496499 0.00424584 0.00477199 0.0043258 0.00424584 0.00424329 0.00417817 0.00424584 0.00477199 0.00417817 0.0044217 0.00426813 0.00480314 0.00424612 0.00467039 0.00480314 0.00442235 0.00467039 0.0043258 0.00424612 0.00467039 0.00422412 0.0042337 0.00467039 0.0043258 0.0042337 0.00424329 0.000432466 0.00131876 0.000667735 0.00155547 0.00131876 0.00068434 0.00155547 0.000905349 0.000667735 0.00155547 0.000969741 0.00187039 0.00377992 0.00414418 0.00339188 0.00389286 0.00339188 0.00389286 0.00318893 0.00365709 0.00112699 0.00221694 0.00166655 0.00248143 0.00221694 0.00305636 0.00248143 0.00328685 0.00166655 0.00248143 0.00211426 0.00271835 0.00385829 0.00271493 0.0036345 0.00258206 0.00271493 0.00165999 0.00258206 0.00158877 0.0036345 0.00258206 0.00379631 0.00238793 0.00258206 0.00158877 0.00238793 0.00151755 0.00502485 0.00480119 0.004667 0.00436662 0.004667 0.00436662 0.00416545 0.00390213 0.00419594 0.00446205 0.00471017 0.00478347 0.00525051 0.00530644 0.0051009 0.00527011 0.00477199 0.0051009 0.0044217 0.00476532 0.0051009 0.00527011 0.00476532 0.00515818 0.00446274 0.0048346 0.00480939 0.00513218 0.0048346 0.00515295 0.00513218 0.00526136 0.00513218 0.00526136 0.00525051 0.00530644 0.00145332 0.00234399 0.00127086 0.00199262 0.00127086 0.00199262 0.00108841 0.00159267 0.00199262 0.00118448 0.00159267 0.00102205 0.00183239 0.00267936 0.00142302 0.0022711 0.00267936 0.00324958 0.0022711 0.00267301 0.00142302 0.0022711 0.00108431 0.00196435 0.0022711 0.00267301 0.00196435 0.00198122 0.00108841 0.00159267 0.000815536 0.00127252 0.00159267 0.00102205 0.00127252 0.0009635 0.000815536 0.00127252 0.000538132 0.00114021 0.00127252 0.0009635 0.00114021 0.000821862 0.00448209 0.00400856 0.00464606 0.00417363 0.00400856 0.00362203 0.00417363 0.00375873 0.00464606 0.00417363 0.0046025 0.00420402 0.00417363 0.00375873 0.00420402 0.00380554 0.00263071 0.00315111 0.00204995 0.00295378 0.00315111 0.00350277 0.00295378 0.00346452 0.00204995 0.00295378 0.00149741 0.00276841 0.00295378 0.00346452 0.00276841 0.003421 0.00426935 0.00416201 0.00427596 0.00412025 0.00416201 0.004139 0.00412025 0.0041869 0.00427596 0.00412025 0.00431592 0.0041502 0.00412025 0.0041869 0.0041502 0.00446274 0.00166964 0.00165797 0.00179219 0.00214919 0.00165797 0.0016463 0.00214919 0.00201799 0.00179219 0.00214919 0.00188102 0.00246579 0.00214919 0.00201799 0.00246579 0.00236438 0.00370301 0.00383241 0.00411014 0.00410689 0.00383241 0.00411776 0.00410689 0.00418464 0.00411014 0.00410689 0.00426935 0.00416201 0.00410689 0.00418464 0.00416201 0.004139 0.000878719 0.0017917 0.000826941 0.00173118 0.00378248 0.00238804 0.00379602 0.00229803 0.00238804 0.000821186 0.00229803 0.00085445 0.00379602 0.00229803 0.00376972 0.00214891 0.00229803 0.00085445 0.00214891 0.000958671 0.00355218 0.00312585 0.00352149 0.00359371 0.00352149 0.00359371 0.00352831 0.00383866 0.000826941 0.00173118 0.000813617 0.00171131 0.000813617 0.00171131 0.000732948 0.0016306 0.00171131 0.000622944 0.0016306 0.000415463 0.000732948 0.0016306 0.000582453 0.00147424 0.00431592 0.0041502 0.00439467 0.0042503 0.0041502 0.00446274 0.0042503 0.00480939 0.00439467 0.0042503 0.00442235 0.00429873 0.0042503 0.00480939 0.00429873 0.00496499 0.00373934 0.00328005 0.00356709 0.00328325 0.00328325 0.00326594 0.0034375 0.0034836 0.00326594 0.00383436 0.0034836 0.0035373 0.00308319 0.00317086 0.0032912 0.00370301 0.00411776 0.0039403 0.00418464 0.00420736 0.0039403 0.00359243 0.00420736 0.00419594 0.00418464 0.00420736 0.004139 0.00436469 0.00420736 0.00419594 0.00436469 0.00471017 0.000291607 0.0014605 0.000307357 0.00158644 0.00140641 0.000685957 0.00169902 0.00112699 0.00230475 0.00207449 0.00279637 0.00209242 0.00279637 0.00209242 0.00309695 0.00231306 0.00305636 0.00301669 0.00328685 0.00310622 0.00301669 0.00312052 0.00310622 0.00295374 0.00328685 0.00310622 0.00349273 0.00309386 0.0018514 0.00333113 0.00179327 0.00336895 0.00436979 0.00539004 0.00434289 0.00535025 0.00434289 0.00535025 0.00425186 0.00529843 0.00170472 0.00227213 0.00156802 0.00174948 0.00227213 0.00214166 0.00174948 0.00193094 0.00324958 0.00358993 0.00267301 0.00321038 0.00358993 0.0033858 0.00321038 0.00322517 0.00267301 0.00321038 0.00198122 0.00275121 0.00321038 0.00322517 0.00275121 0.00312773 0.00534753 0.00338749 0.00536646 0.00350417 0.00338749 0.00225862 0.00350417 0.00232956 0.00536646 0.00350417 0.00539004 0.00352731 0.00350417 0.00232956 0.00352731 0.00240051 0.00424329 0.00417817 0.00418667 0.00416944 0.00418667 0.00416944 0.00413006 0.00419667 0.00416944 0.00428531 0.00419667 0.0044465 0.00378544 0.00227645 0.00384675 0.00240356 0.00227645 0.0011775 0.00240356 0.00135276 0.00240356 0.00135276 0.00238534 0.00152803 0.00425186 0.00529843 0.00424151 0.00511259 0.00344168 0.00389784 0.00372833 0.00426838 0.00389784 0.00426935 0.00426838 0.00427596 0.00372833 0.00426838 0.00401497 0.00456981 0.00426838 0.00427596 0.00456981 0.00431592 0.00333182 0.00385829 0.00283465 0.0036345 0.00198122 0.00275121 0.00135898 0.00233383 0.00275121 0.00312773 0.00233383 0.00291657 0.00135898 0.00233383 0.000878377 0.00202001 0.00233383 0.00291657 0.00202001 0.00267572 0.00350277 0.0034375 0.00346452 0.00355123 0.0034375 0.0034836 0.00355123 0.00366822 0.00346452 0.00355123 0.003421 0.00364818 0.00355123 0.00366822 0.00364818 0.00371682 0.00318928 0.00241448 0.00410419 0.00260259 0.00241448 0.00109136 0.00260259 0.000987851 0.000415752 0.0017775 0.000685957 0.00197786 0.0017775 0.00255659 0.00197786 0.00280234 0.000685957 0.00197786 0.00112699 0.00221694 0.00197786 0.00280234 0.00221694 0.00305636 0.00130011 0.00271181 0.00191286 0.00289291 0.00271181 0.00331701 0.00289291 0.00329246 0.00191286 0.00289291 0.00261207 0.00318629 0.00289291 0.00329246 0.00318629 0.00325014 0.00261207 0.00318629 0.00330308 0.00348533 0.00318629 0.00325014 0.00348533 0.00324775 0.00330308 0.00348533 0.00382731 0.00368438 0.00348533 0.00324775 0.00368438 0.00333038 0.00238534 0.00152803 0.00252555 0.00176515 0.00252555 0.00176515 0.0029253 0.00195543 0.00333038 0.00355271 0.00346979 0.00378751 0.00355271 0.00352831 0.00378751 0.00366203 0.00346979 0.00378751 0.00362203 0.00396143 0.00378751 0.00366203 0.00396143 0.00400676 0.00369539 0.00391273 0.00323298 0.00384902 0.00391273 0.00413006 0.00384902 0.004028 0.00323298 0.00384902 0.00274423 0.00352898 0.00384902 0.004028 0.00352898 0.00385766 0.00274423 0.00352898 0.0022691 0.00311318 0.00352898 0.00385766 0.00311318 0.00361859 0.0022691 0.00311318 0.00183239 0.00267936 0.00311318 0.00361859 0.00267936 0.00324958 0.00246718 0.0032912 0.00294088 0.00356436 0.0032912 0.00370301 0.00356436 0.00411014 0.00294088 0.00356436 0.00344168 0.00389784 0.00356436 0.00411014 0.00389784 0.00426935 0.00428751 0.00444534 0.00377992 0.00414418 0.00362203 0.00396143 0.00375873 0.00408761 0.00396143 0.00400676 0.00408761 0.0045147 0.00375873 0.00408761 0.00380554 0.00423063 0.00408761 0.0045147 0.00423063 0.00488003 0.00413088 0.00506951 0.00413997 0.00538549 0.00413997 0.00538549 0.00430201 0.00534753 0.00506951 0.0029253 0.00538549 0.00319761 0.0029253 0.00195543 0.00319761 0.00207597 0.00538549 0.00319761 0.00534753 0.00338749 0.00319761 0.00207597 0.00338749 0.00225862 0.00480119 0.00478897 0.00436662 0.00457221 0.00436662 0.00457221 0.00390213 0.00434051 0.00376972 0.00214891 0.00374271 0.0021553 0.00214891 0.000958671 0.0021553 0.00106809 0.00374271 0.0021553 0.00378544 0.00227645 0.0021553 0.00106809 0.00227645 0.0011775 0.00430201 0.00534753 0.00436511 0.00536646 0.00436511 0.00536646 0.00436979 0.00539004 0.00246542 0.00312375 0.00228422 0.00321828 0.00312375 0.00378207 0.00321828 0.00339581 0.00321828 0.00339581 0.00316026 0.00298168 0.0034799 0.00375562 0.00334691 0.00368221 0.00375562 0.00347694 0.00368221 0.00355084 0.00334691 0.00368221 0.00331701 0.00356197 0.00368221 0.00355084 0.00356197 0.00360455 0.00300967 0.0029945 0.00294409 0.00294116 0.00291657 0.00294409 0.00267572 0.00287683 0.00294409 0.00294116 0.00287683 0.00289446 0.003421 0.00364818 0.00341609 0.00378033 0.00364818 0.00371682 0.00378033 0.00363524 0.00341609 0.00378033 0.00354598 0.00389664 0.00378033 0.00363524 0.00389664 0.00349278 0.00146003 0.00188102 0.00135056 0.00195882 0.00135056 0.00195882 0.00128146 0.00201147 0.00128146 0.00201147 0.00131521 0.00205117 0.00133635 0.00131521 0.00141969 0.00142612 0.00131521 0.00205117 0.00142612 0.00210504 0.00201147 0.00296832 0.00205117 0.00308465 0.00296832 0.00296609 0.00308465 0.00334239 0.00205117 0.00308465 0.00210504 0.00293177 0.00308465 0.00334239 0.00293177 0.0037585 0.0033858 0.00325396 0.00322517 0.00308809 0.00325396 0.00318893 0.00308809 0.00306553 0.00322517 0.00308809 0.00312773 0.00300967 0.00308809 0.00306553 0.00300967 0.0029945 0.00243903 0.00133635 0.00278023 0.00141969 0.00425129 0.00533511 0.00409529 0.00521983 0.00409529 0.00521983 0.00408087 0.00489038 0.00494074 0.00278023 0.00518119 0.0030153 0.00278023 0.00141969 0.0030153 0.00159212 0.00518119 0.0030153 0.00531092 0.00319743 0.0030153 0.00159212 0.00319743 0.00184353 0.00379631 0.00238793 0.00383089 0.00233437 0.00238793 0.00151755 0.00233437 0.00138244 0.00383089 0.00233437 0.00335146 0.00218369 0.00233437 0.00138244 0.00218369 0.00124733 0.00418157 0.00518119 0.00413673 0.00531092 0.000415463 0.00152948 0.000329684 0.00143941 0.000329684 0.00143941 0.000291607 0.0014605 0.00413673 0.00531092 0.00424021 0.00533701 0.00424021 0.00533701 0.00432228 0.00537729 0.00336895 0.0023422 0.00289088 0.00206918 0.0023422 0.00111284 0.00206918 0.00111856 0.00206918 0.00111856 0.00197887 0.00109191 0.00410419 0.00260259 0.00402091 0.00252769 0.00260259 0.000987851 0.00252769 0.00103912 0.00402091 0.00252769 0.00403506 0.00237772 0.00252769 0.00103912 0.00237772 0.00115783 0.00431944 0.00409297 0.00379587 0.00360659 0.00409297 0.00377992 0.00360659 0.00339188 0.00379587 0.00360659 0.0033858 0.00325396 0.00360659 0.00339188 0.003253