# vtk DataFile Version 3.0
#This file was generated by the deal.II library on 2023/2/27 at 0:39:21
ASCII
DATASET UNSTRUCTURED_GRID

FIELD FieldData 2
CYCLE 1 1 int
72
TIME 1 1 double
0.144
POINTS 18952 double
2.7746 -0.382683 2.7746
2.17999 -0.382683 3.26259
2.70926 -0.55557 2.70926
2.12865 -0.55557 3.18575
2.17999 -0.382683 3.26259
1.5016 -0.382683 3.62519
2.12865 -0.55557 3.18575
1.46624 -0.55557 3.53982
2.12865 -0.55557 3.18575
1.46624 -0.55557 3.53982
2.05956 -0.707107 3.08235
1.41865 -0.707107 3.42492
2.82843 0 2.82843
2.22228 0 3.32588
2.81484 -0.19509 2.81484
2.21161 -0.19509 3.3099
2.22228 0 3.32588
1.53073 0 3.69552
2.21161 -0.19509 3.3099
1.52338 -0.19509 3.67777
2.81484 -0.19509 2.81484
2.21161 -0.19509 3.3099
2.7746 -0.382683 2.7746
2.17999 -0.382683 3.26259
2.21161 -0.19509 3.3099
1.52338 -0.19509 3.67777
2.17999 -0.382683 3.26259
1.5016 -0.382683 3.62519
2.39192 -0.92388 2.39192
1.87932 -0.92388 2.8126
2.25927 -0.980785 2.25927
1.7751 -0.980785 2.65662
2.25927 -0.980785 2.25927
1.7751 -0.980785 2.65662
2.12132 -1 2.12132
1.66671 -1 2.49441
1.46624 -0.55557 3.53982
0.747483 -0.55557 3.75785
1.41865 -0.707107 3.42492
0.723221 -0.707107 3.63588
2.25927 0.980785 2.25927
1.7751 0.980785 2.65662
2.39192 0.92388 2.39192
1.87932 0.92388 2.8126
1.41865 0.707107 3.42492
0.723221 0.707107 3.63588
1.46624 0.55557 3.53982
0.747483 0.55557 3.75785
-0.776613 -0.19509 3.9043
-1.52338 -0.19509 3.67777
-0.765511 -0.382683 3.84848
-1.5016 -0.382683 3.62519
-0.623331 0.980785 3.1337
-1.22271 0.980785 2.95188
-0.659929 0.92388 3.31769
-1.2945 0.92388 3.12519
0.935443 -0.83147 2.25836
0.476885 -0.83147 2.39746
0.877452 -0.707107 2.11836
0.447321 -0.707107 2.24884
2.7746 0.382683 2.7746
2.17999 0.382683 3.26259
2.81484 0.19509 2.81484
2.21161 0.19509 3.3099
2.17999 0.382683 3.26259
1.5016 0.382683 3.62519
2.21161 0.19509 3.3099
1.52338 0.19509 3.67777
2.21161 0.19509 3.3099
1.52338 0.19509 3.67777
2.22228 0 3.32588
1.53073 0 3.69552
-0.877452 0.707107 2.11836
-1.27386 0.707107 1.90647
-0.935443 0.83147 2.25836
-1.35805 0.83147 2.03247
-1.27386 0.707107 1.90647
-1.62132 0.707107 1.62132
-1.35805 0.83147 2.03247
-1.72847 0.83147 1.72847
-0.935443 0.83147 2.25836
-1.35805 0.83147 2.03247
-1.0016 0.92388 2.41809
-1.4541 0.92388 2.17622
-1.35805 0.83147 2.03247
-1.72847 0.83147 1.72847
-1.4541 0.92388 2.17622
-1.85072 0.92388 1.85072
-1.0016 0.92388 2.41809
-1.4541 0.92388 2.17622
-1.07339 0.980785 2.5914
-1.55832 0.980785 2.3322
-1.4541 0.92388 2.17622
-1.85072 0.92388 1.85072
-1.55832 0.980785 2.3322
-1.98337 0.980785 1.98337
-1.07339 -0.980785 2.5914
-1.55832 -0.980785 2.3322
-1.0016 -0.92388 2.41809
-1.4541 -0.92388 2.17622
-1.55832 -0.980785 2.3322
-1.98337 -0.980785 1.98337
-1.4541 -0.92388 2.17622
-1.85072 -0.92388 1.85072
2.12686 0.55557 0.423059
2.00346 0.55557 0.829861
2.24884 0.707107 0.447321
2.11836 0.707107 0.877452
-3.98353e-16 0.55557 -2.16853
0.423059 0.55557 -2.12686
-4.21198e-16 0.707107 -2.29289
0.447321 0.707107 -2.24884
-1.0016 -0.92388 2.41809
-1.4541 -0.92388 2.17622
-0.935443 -0.83147 2.25836
-1.35805 -0.83147 2.03247
-1.4541 -0.92388 2.17622
-1.85072 -0.92388 1.85072
-1.35805 -0.83147 2.03247
-1.72847 -0.83147 1.72847
-1.35805 -0.83147 2.03247
-1.72847 -0.83147 1.72847
-1.27386 -0.707107 1.90647
-1.62132 -0.707107 1.62132
1.15343 0.382683 1.72623
0.794497 0.382683 1.91809
1.20477 0.55557 1.80307
0.829861 0.55557 2.00346
-1.41421 1.22465e-16 -1.41421
-1.11114 1.22465e-16 -1.66294
-1.4278 0.19509 -1.4278
-1.12182 0.19509 -1.67892
-1.11114 1.22465e-16 -1.66294
-0.765367 1.22465e-16 -1.84776
-1.12182 0.19509 -1.67892
-0.77272 0.19509 -1.86551
-1.4278 0.19509 -1.4278
-1.12182 0.19509 -1.67892
-1.46804 0.382683 -1.46804
-1.15343 0.382683 -1.72623
-1.12182 0.19509 -1.67892
-0.77272 0.19509 -1.86551
-1.15343 0.382683 -1.72623
-0.794497 0.382683 -1.91809
-1.46804 0.382683 -1.46804
-1.15343 0.382683 -1.72623
-1.53338 0.55557 -1.53338
-1.20477 0.55557 -1.80307
-1.15343 0.382683 -1.72623
-0.794497 0.382683 -1.91809
-1.20477 0.55557 -1.80307
-0.829861 0.55557 -2.00346
-1.53338 0.55557 -1.53338
-1.20477 0.55557 -1.80307
-1.62132 0.707107 -1.62132
-1.27386 0.707107 -1.90647
-1.20477 0.55557 -1.80307
-0.829861 0.55557 -2.00346
-1.27386 0.707107 -1.90647
-0.877452 0.707107 -2.11836
-4.21198e-16 0.707107 -2.29289
0.447321 0.707107 -2.24884
-4.49034e-16 0.83147 -2.44443
0.476885 0.83147 -2.39746
-1.62132 0.707107 -1.62132
-1.27386 0.707107 -1.90647
-1.72847 0.83147 -1.72847
-1.35805 0.83147 -2.03247
-1.27386 0.707107 -1.90647
-0.877452 0.707107 -2.11836
-1.35805 0.83147 -2.03247
-0.935443 0.83147 -2.25836
-1.72847 0.83147 -1.72847
-1.35805 0.83147 -2.03247
-1.85072 0.92388 -1.85072
-1.4541 0.92388 -2.17622
-1.35805 0.83147 -2.03247
-0.935443 0.83147 -2.25836
-1.4541 0.92388 -2.17622
-1.0016 0.92388 -2.41809
-1.85072 0.92388 -1.85072
-1.4541 0.92388 -2.17622
-1.98337 0.980785 -1.98337
-1.55832 0.980785 -2.3322
-1.4541 0.92388 -2.17622
-1.0016 0.92388 -2.41809
-1.55832 0.980785 -2.3322
-1.07339 0.980785 -2.5914
-1.98337 0.980785 -1.98337
-1.55832 0.980785 -2.3322
-2.12132 1 -2.12132
-1.66671 1 -2.49441
-1.55832 0.980785 -2.3322
-1.07339 0.980785 -2.5914
-1.66671 1 -2.49441
-1.14805 1 -2.77164
-2.12132 -1 -2.12132
-1.66671 -1 -2.49441
-1.98337 -0.980785 -1.98337
-1.55832 -0.980785 -2.3322
-1.66671 -1 -2.49441
-1.14805 -1 -2.77164
-1.55832 -0.980785 -2.3322
-1.07339 -0.980785 -2.5914
-1.98337 -0.980785 -1.98337
-1.55832 -0.980785 -2.3322
-1.85072 -0.92388 -1.85072
-1.4541 -0.92388 -2.17622
-1.55832 -0.980785 -2.3322
-1.07339 -0.980785 -2.5914
-1.4541 -0.92388 -2.17622
-1.0016 -0.92388 -2.41809
2.25836 -0.83147 0.935443
2.03247 -0.83147 1.35805
2.11836 -0.707107 0.877452
1.90647 -0.707107 1.27386
1.20477 -0.55557 1.80307
0.829861 -0.55557 2.00346
1.15343 -0.382683 1.72623
0.794497 -0.382683 1.91809
-1.85072 -0.92388 -1.85072
-1.4541 -0.92388 -2.17622
-1.72847 -0.83147 -1.72847
-1.35805 -0.83147 -2.03247
-1.4541 -0.92388 -2.17622
-1.0016 -0.92388 -2.41809
-1.35805 -0.83147 -2.03247
-0.935443 -0.83147 -2.25836
-1.72847 -0.83147 -1.72847
-1.35805 -0.83147 -2.03247
-1.62132 -0.707107 -1.62132
-1.27386 -0.707107 -1.90647
-1.35805 -0.83147 -2.03247
-0.935443 -0.83147 -2.25836
-1.27386 -0.707107 -1.90647
-0.877452 -0.707107 -2.11836
-1.62132 -0.707107 -1.62132
-1.27386 -0.707107 -1.90647
-1.53338 -0.55557 -1.53338
-1.20477 -0.55557 -1.80307
-1.27386 -0.707107 -1.90647
-0.877452 -0.707107 -2.11836
-1.20477 -0.55557 -1.80307
-0.829861 -0.55557 -2.00346
-1.53338 -0.55557 -1.53338
-1.20477 -0.55557 -1.80307
-1.46804 -0.382683 -1.46804
-1.15343 -0.382683 -1.72623
-1.20477 -0.55557 -1.80307
-0.829861 -0.55557 -2.00346
-1.15343 -0.382683 -1.72623
-0.794497 -0.382683 -1.91809
-1.46804 -0.382683 -1.46804
-1.15343 -0.382683 -1.72623
-1.4278 -0.19509 -1.4278
-1.12182 -0.19509 -1.67892
-1.15343 -0.382683 -1.72623
-0.794497 -0.382683 -1.91809
-1.12182 -0.19509 -1.67892
-0.77272 -0.19509 -1.86551
-1.4278 -0.19509 -1.4278
-1.12182 -0.19509 -1.67892
-1.41421 1.22465e-16 -1.41421
-1.11114 1.22465e-16 -1.66294
-1.12182 -0.19509 -1.67892
-0.77272 -0.19509 -1.86551
-1.11114 1.22465e-16 -1.66294
-0.765367 1.22465e-16 -1.84776
3.32588 0 -2.22228
3.69552 0 -1.53073
3.3099 -0.19509 -2.21161
3.67777 -0.19509 -1.52338
-4.49034e-16 -0.83147 -2.44443
0.476885 -0.83147 -2.39746
-4.21198e-16 -0.707107 -2.29289
0.447321 -0.707107 -2.24884
-4.21198e-16 -0.707107 -2.29289
0.447321 -0.707107 -2.24884
-3.98353e-16 -0.55557 -2.16853
0.423059 -0.55557 -2.12686
1.84776 1.22465e-16 -0.765367
1.96157 1.22465e-16 -0.390181
1.86551 0.19509 -0.77272
1.98042 0.19509 -0.393929
1.86551 0.19509 -0.77272
1.98042 0.19509 -0.393929
1.91809 0.382683 -0.794497
2.03623 0.382683 -0.405031
1.91809 0.382683 -0.794497
2.03623 0.382683 -0.405031
2.00346 0.55557 -0.829861
2.12686 0.55557 -0.423059
2.00346 -0.55557 -0.829861
2.12686 -0.55557 -0.423059
1.91809 -0.382683 -0.794497
2.03623 -0.382683 -0.405031
1.91809 -0.382683 -0.794497
2.03623 -0.382683 -0.405031
1.86551 -0.19509 -0.77272
1.98042 -0.19509 -0.393929
1.86551 -0.19509 -0.77272
1.98042 -0.19509 -0.393929
1.84776 1.22465e-16 -0.765367
1.96157 1.22465e-16 -0.390181
-0.693657 -0.83147 3.48725
-1.36066 -0.83147 3.28492
-0.659929 -0.92388 3.31769
-1.2945 -0.92388 3.12519
-2.62132 -0.707107 -2.62132
-2.05956 -0.707107 -3.08235
-2.51417 -0.83147 -2.51417
-1.97537 -0.83147 -2.95635
-2.05956 -0.707107 -3.08235
-1.41865 -0.707107 -3.42492
-1.97537 -0.83147 -2.95635
-1.36066 -0.83147 -3.28492
-2.51417 -0.83147 -2.51417
-1.97537 -0.83147 -2.95635
-2.39192 -0.92388 -2.39192
-1.87932 -0.92388 -2.8126
-1.97537 -0.83147 -2.95635
-1.36066 -0.83147 -3.28492
-1.87932 -0.92388 -2.8126
-1.2945 -0.92388 -3.12519
-2.39192 -0.92388 -2.39192
-1.87932 -0.92388 -2.8126
-2.25927 -0.980785 -2.25927
-1.7751 -0.980785 -2.65662
-1.87932 -0.92388 -2.8126
-1.2945 -0.92388 -3.12519
-1.7751 -0.980785 -2.65662
-1.22271 -0.980785 -2.95188
-2.25927 -0.980785 -2.25927
-1.7751 -0.980785 -2.65662
-2.12132 -1 -2.12132
-1.66671 -1 -2.49441
-1.7751 -0.980785 -2.65662
-1.22271 -0.980785 -2.95188
-1.66671 -1 -2.49441
-1.14805 -1 -2.77164
-2.12132 1 -2.12132
-1.66671 1 -2.49441
-2.25927 0.980785 -2.25927
-1.7751 0.980785 -2.65662
-1.66671 1 -2.49441
-1.14805 1 -2.77164
-1.7751 0.980785 -2.65662
-1.22271 0.980785 -2.95188
-2.25927 0.980785 -2.25927
-1.7751 0.980785 -2.65662
-2.39192 0.92388 -2.39192
-1.87932 0.92388 -2.8126
-1.7751 0.980785 -2.65662
-1.22271 0.980785 -2.95188
-1.87932 0.92388 -2.8126
-1.2945 0.92388 -3.12519
-2.39192 0.92388 -2.39192
-1.87932 0.92388 -2.8126
-2.51417 0.83147 -2.51417
-1.97537 0.83147 -2.95635
-1.87932 0.92388 -2.8126
-1.2945 0.92388 -3.12519
-1.97537 0.83147 -2.95635
-1.36066 0.83147 -3.28492
-2.51417 0.83147 -2.51417
-1.97537 0.83147 -2.95635
-2.62132 0.707107 -2.62132
-2.05956 0.707107 -3.08235
-1.97537 0.83147 -2.95635
-1.36066 0.83147 -3.28492
-2.05956 0.707107 -3.08235
-1.41865 0.707107 -3.42492
-1.41865 -0.707107 3.42492
-2.05956 -0.707107 3.08235
-1.36066 -0.83147 3.28492
-1.97537 -0.83147 2.95635
-2.05956 -0.707107 3.08235
[...]
POINT_DATA 18952
SCALARS U double 1
LOOKUP_TABLE default
0.00200198 0.00287332 0.00299582 0.00381112 0.00287332 0.00378436 0.00381112 0.00482584 0.00381112 0.00482584 0.00504757 0.00589053 0.00120171 0.00204095 0.00136192 0.00224974 0.00204095 0.00270871 0.00224974 0.00302885 0.00136192 0.00224974 0.00200198 0.00287332 0.00224974 0.00302885 0.00287332 0.00378436 0.00780264 0.00813817 0.00972583 0.0098099 0.00972583 0.0098099 0.011582 0.0114271 0.00482584 0.00207026 0.00589053 0.00226096 0.00983365 0.0100149 0.00797126 0.00829632 0.00583976 0.0020737 0.00476945 0.00195513 -0.00195217 -0.00222246 -0.00182302 -0.00180613 -0.00151172 0.00113064 -0.00138149 0.000730167 0.00784825 0.000694525 0.00708091 0.000395069 0.00216639 0.00296749 0.00148613 0.00229196 0.00296749 0.00372206 0.00229196 0.00298708 0.00229196 0.00298708 0.00204095 0.00270871 0.000383821 0.00379603 0.000773987 0.00385822 0.00379603 0.00540505 0.00385822 0.00514875 0.000773987 0.00385822 0.00110603 0.00369107 0.00385822 0.00514875 0.00369107 0.00466085 0.00110603 0.00369107 0.00131963 0.00329213 0.00369107 0.00466085 0.00329213 0.00383587 0.00130859 0.0032586 0.00111757 0.00369104 0.0032586 0.00386301 0.00369104 0.00467864 0.00121268 0.00723558 0.00143406 0.00774188 -0.00440555 -0.00315019 -0.00436616 -0.00303133 0.00111757 0.00369104 0.000799385 0.0038712 0.00369104 0.00467864 0.0038712 0.00516382 0.0038712 0.00516382 0.003816 0.00542756 0.0121092 0.0060505 0.0129511 0.00665795 0.00327492 0.002052 0.00339075 0.00215798 0.002052 -0.000638229 0.00215798 -0.000572149 0.00339075 0.00215798 0.00368648 0.00244 0.00215798 -0.000572149 0.00244 -0.000388271 0.00368648 0.00244 0.00403104 0.00280287 0.00244 -0.000388271 0.00280287 -0.000127354 0.00403104 0.00280287 0.00426363 0.00310692 0.00280287 -0.000127354 0.00310692 0.000148404 -0.00436616 -0.00303133 -0.00432923 -0.00312544 0.00426363 0.00310692 0.00426492 0.00321197 0.00310692 0.000148404 0.00321197 0.000392443 0.00426492 0.00321197 0.00393431 0.00312722 0.00321197 0.000392443 0.00312722 0.000606364 0.00393431 0.00312722 0.00335765 0.00282245 0.00312722 0.000606364 0.00282245 0.000729324 0.00335765 0.00282245 0.00255758 0.0022934 0.00282245 0.000729324 0.0022934 0.000694936 0.00255711 0.00229318 0.00335733 0.00282217 0.00229318 0.000695238 0.00282217 0.00072927 0.00335733 0.00282217 0.00393415 0.00312692 0.00282217 0.00072927 0.00312692 0.000606077 0.00867897 0.0141417 0.00795165 0.0139936 0.0127886 0.00636675 0.0119662 0.00586853 0.00393415 0.00312692 0.00426489 0.00321168 0.00312692 0.000606077 0.00321168 0.000392017 0.00426489 0.00321168 0.0042637 0.00310669 0.00321168 0.000392017 0.00310669 0.000148 0.0042637 0.00310669 0.00403115 0.00280274 0.00310669 0.000148 0.00280274 -0.000127564 0.00403115 0.00280274 0.00368658 0.00243999 0.00280274 -0.000127564 0.00243999 -0.000388253 0.00368658 0.00243999 0.00339082 0.00215801 0.00243999 -0.000388253 0.00215801 -0.000572051 0.00339082 0.00215801 0.00327492 0.002052 0.00215801 -0.000572051 0.002052 -0.000638229 0.00252121 0.00305226 0.00253403 0.00309378 -0.00432933 -0.00312505 -0.0043663 -0.00303068 -0.0043663 -0.00303068 -0.0044056 -0.00314953 0.00542681 -0.000125109 0.00547866 -7.14489e-05 0.00547866 -7.14489e-05 0.00575156 7.88894e-05 0.00575156 7.88894e-05 0.00637214 0.000259901 0.00636646 0.00025797 0.00574755 7.72469e-05 0.00574755 7.72469e-05 0.00547645 -7.2576e-05 0.00547645 -7.2576e-05 0.00542681 -0.000125109 -0.00124924 0.000113588 -0.00119596 0.000660424 -0.00109709 -0.00102025 -0.000277651 -0.00020757 -0.00102025 -0.00105846 -0.00020757 -0.000471672 -0.000277651 -0.00020757 0.00063919 0.000677286 -0.00020757 -0.000471672 0.000677286 6.04153e-05 0.00063919 0.000677286 0.00160847 0.00154744 0.000677286 6.04153e-05 0.00154744 0.000477027 0.00160847 0.00154744 0.00255711 0.00229318 0.00154744 0.000477027 0.00229318 0.000695238 0.00255758 0.0022934 0.00160903 0.00154758 0.0022934 0.000694936 0.00154758 0.000476417 0.00160903 0.00154758 0.000639793 0.000677309 0.00154758 0.000476417 0.000677309 5.95697e-05 0.000639793 0.000677309 -0.000277069 -0.000207665 0.000677309 5.95697e-05 -0.000207665 -0.000472671 -0.000277069 -0.000207665 -0.00109657 -0.00102042 -0.000207665 -0.000472671 -0.00102042 -0.00105946 -0.000561718 -0.000809805 0.000113588 -0.000105525 -0.000809805 -0.00104678 -0.000105525 -0.000170654 0.000113588 -0.000105525 0.000660424 0.000717421 -0.000105525 -0.000170654 0.000717421 0.000790749 0.000717421 0.000790749 0.00162308 0.00183059 0.00162308 0.00183059 0.00251063 0.0028903 0.00257091 0.00285262 0.00171618 0.00178229 0.00113064 0.00171618 0.000730167 0.000802285 0.00171618 0.00178229 0.000802285 0.000746501 0.00422143 0.00294993 0.00369545 0.00238325 0.00294993 0.00216639 0.00238325 0.00148613 0.000802285 0.000746501 -4.05536e-05 -0.000203376 0.000136263 -4.05536e-05 -0.00051935 -0.000788523 -4.05536e-05 -0.000203376 -0.000788523 -0.00106052 0.00450203 0.00519128 0.00318541 0.00394913 0.00519128 0.00583976 0.00394913 0.00476945 0.00318541 0.00394913 0.00216639 0.00296749 0.00394913 0.00476945 0.00296749 0.00372206 0.00503571 0.00381872 0.00619444 0.00521616 0.00381872 0.00299582 0.00521616 0.00429036 0.00143406 0.00774188 0.00165785 0.00824583 -0.00247284 -0.00291504 -0.00215841 -0.00287351 -0.00215841 -0.00287351 -0.00164267 -0.00278999 -0.000471672 -0.00261321 6.04153e-05 -0.00260571 6.04153e-05 -0.00260571 0.000477027 -0.00261089 -0.00260571 -0.00471464 -0.00261089 -0.0045498 0.000476417 -0.00261209 5.95697e-05 -0.0026073 -0.00261209 -0.004551 -0.0026073 -0.00471604 5.95697e-05 -0.0026073 -0.000472671 -0.002615 -0.00164355 -0.00279159 -0.00215907 -0.0028747 -0.00215907 -0.0028747 -0.00247319 -0.00291567 0.00547916 -0.000250821 0.00564462 -0.000108987 -0.000250821 -0.00384331 -0.000108987 -0.0037767 0.00564462 -0.000108987 0.0060505 6.60211e-05 -0.000108987 -0.0037767 6.60211e-05 -0.00376169 0.00261044 0.00970468 0.00219238 0.0092873 0.0060505 6.60211e-05 0.00665795 0.000312559 6.60211e-05 -0.00376169 0.000312559 -0.00375827 0.00665795 0.000312559 0.00740945 0.000520362 0.000312559 -0.00375827 0.000520362 -0.00384955 0.00219238 0.0092873 0.00181412 0.00867897 0.00181412 0.00867897 0.00148847 0.00795165 0.00454465 0.00260103 0.00470405 0.0027464 0.00260103 -0.000949838 0.0027464 -0.000897416 0.0027464 -0.000897416 0.00302704 -0.00071646 -0.000949838 -0.00385567 -0.000897416 -0.00384795 -0.00385567 -0.00455223 -0.00384795 -0.00453397 -0.000897416 -0.00384795 -0.00071646 -0.00382674 -0.00384795 -0.00453397 -0.00382674 -0.0044831 0.00302704 -0.00071646 0.00343108 -0.000466037 0.00343108 -0.000466037 0.00380582 -0.000155474 -0.00071646 -0.00382674 -0.000466037 -0.00380863 -0.00382674 -0.0044831 -0.00380863 -0.0044346 -0.000466037 -0.00380863 -0.000155474 -0.00380992 -0.00380863 -0.0044346 -0.00380992 -0.00440855 0.00380576 -0.000157498 0.00341999 -0.000464324 0.00341999 -0.000464324 0.00306319 -0.000725497 0.00540505 0.00380582 0.00514875 0.00395305 0.00380582 -0.000155474 0.00395305 0.000213283 0.00514875 0.00395305 0.00466085 0.00380266 0.000213283 -0.00359972 0.000506217 -0.00343515 0.000506217 -0.00343515 0.000668578 -0.0033906 0.000664993 -0.00339103 0.000503137 -0.00343598 0.00467864 0.00380468 0.00516382 0.00395277 0.00516382 0.00395277 0.00542756 0.00380576 0.00395277 0.000210666 0.00380576 -0.000157498 0.000503137 -0.00343598 0.000210666 -0.00360065 -0.00293156 -0.000196769 -0.00284846 -7.24063e-05 -0.00284846 -7.24063e-05 -0.0026227 0.00026114 -0.0026227 0.00026114 -0.00230617 0.000705366 -0.00230617 0.000705366 -0.00195081 0.00114156 -0.00195081 0.00114156 -0.001628 0.00150767 -0.001628 0.00150767 -0.00136272 0.00171488 0.00150767 0.00354417 0.00171488 0.00335681 0.00354417 0.00426492 0.00335681 0.00393431 -0.00136272 0.00171488 -0.00116446 0.00178598 -0.00116446 0.00178598 -0.00103908 0.00169343 0.00171488 0.00335681 0.00178598 0.00297464 0.00335681 0.00393431 0.00297464 0.00335765 0.00178598 0.00297464 0.00169343 0.00240903 0.00297464 0.00335765 0.00240903 0.00255758 -0.00103801 0.00169403 -0.00116337 0.00178669 -0.00116337 0.00178669 -0.00136175 0.0017156 0.00169403 0.00240897 0.00178669 0.00297472 0.00240897 0.00255711 0.00297472 0.00335733 0.00178669 0.00297472 0.0017156 0.00335703 0.00297472 0.00335733 0.00335703 0.00393415 -0.00136175 0.0017156 -0.00162725 0.00150833 -0.00162725 0.00150833 -0.00195031 0.0011421 0.0017156 0.00335703 0.00150833 0.00354449 0.00335703 0.00393415 0.00354449 0.00426489 -0.00195031 0.0011421 -0.00230587 0.000705776 -0.00230587 0.000705776 -0.00262256 0.000261415 -0.00262256 0.000261415 -0.0028484 -7.22721e-05 -0.0028484 -7.22721e-05 -0.00293156 -0.000196769 -0.0046027 -0.00236069 -0.00459097 -0.00231497 -0.00459097 -0.00231497 -0.00456809 -0.00218672 -0.00194004 -0.0028474 -0.00182161 -0.00272742 -0.00182161 -0.00272742 -0.00149262 -0.00237629 -0.00456809 -0.00218672 -0.00454382 -0.00198835 -0.00299017 0.000383821 -0.00268731 0.000773987 -0.00268731 0.000773987 -0.00235473 0.00110603 0.00504757 0.00589053 0.00654265 0.00694429 0.00592337 0.00654265 0.00780264 0.00813817 -0.00433315 -0.00119391 -0.00426616 -0.00108344 0.00101228 0.00063919 0.00174139 0.00160847 0.00143907 0.00174139 0.00169403 0.00240897 0.00174139 0.00160847 0.00240897 0.00255711 -0.00426681 -0.00108432 -0.00433359 -0.00119454 0.00169343 0.00240903 0.00143865 0.00174158 0.00240903 0.00255758 0.00174158 0.00160903 0.00174158 0.00160903 0.00101257 0.000639793 0.00797126 0.00829632 0.00612579 0.00668301 0.00668301 0.00690886 0.00519128 0.00583976 -0.00454399 -0.00198833 -0.00456822 -0.00218664 -0.00235473 0.00110603 -0.00204181 0.00131963 -0.00456822 -0.00218664 -0.00459104 -0.00231491 -0.00459104 -0.00231491 -0.0046027 -0.00236069 -0.00149235 -0.002376 -0.00182146 -0.00272727 -0.00182146 -0.00272727 -0.00194004 -0.0028474 -0.000157498 -0.00381078 -0.000464324 -0.00381013 -0.00381078 -0.00440846 -0.00381013 -0.00443441 -0.000464324 -0.00381013 -0.000725497 -0.0038253 -0.00381013 -0.00443441 -0.0038253 -0.00448377 0.00501807 0.00306319 0.00464267 0.00272581 0.00306319 -0.000725497 0.00272581 -0.000892525 0.00464267 0.00272581 0.00454465 0.00260103 0.00272581 -0.000892525 0.00260103 -0.000949838 -0.000725497 -0.0038253 -0.000892525 -0.0038495 -0.0038253 -0.00448377 -0.0038495 -0.00453367 -0.000892525 -0.0038495 -0.000949838 -0.00385567 -0.0038495 -0.00453367 -0.00385567 -0.00455223 -0.00176959 -0.00366212 -0.00166607 -0.00360827 -0.00366212 -0.0046027 -0.00360827 -0.00459097 -0.00166607 -0.00360827 -0.00138228 -0.00348251 -0.00360827 -0.00459097 -0.00348251 -0.00456809 -0.00138228 -0.00348251 -0.00103711 -0.00334989 -0.00348251 -0.00456809 -0.00334989 -0.00454382 -0.00103711 -0.00334989 -0.000683597 -0.00327556 -0.00334989 -0.00454382 -0.00327556 -0.00447017 -0.00104678 -0.000570227 -0.000170654 0.000131107 -0.000570227 -0.000683597 0.000131107 -0.00033145 -0.000170654 0.000131107 0.000790749 0.000967534 0.000131107 -0.00033145 0.000967534 5.6659e-05 -0.000683597 -0.00327556 -0.00033145 -0.0032728 -0.00327556 -0.00447017 -0.0032728 -0.00439137 -0.00033145 -0.0032728 5.6659e-05 -0.003301 -0.0032728 -0.00439137 -0.003301 -0.00433315 0.000790749 0.000967534 0.00183059 0.00188536 0.000967534 5.6659e-05 0.00188536 0.000427423 0.00183059 0.00188536 0.0028903 0.00275045 0.00188536 0.000427423 0.00275045 0.000677324 5.6659e-05 -0.003301 0.000427423 -0.00333066 -0.003301 -0.00433315 -0.00333066 -0.00426616 0.000427423 -0.00333066 0.000677324 -0.0033977 -0.00333066 -0.00426616 -0.0033977 -0.00428176 0.00285262 0.00274283 0.00178229 0.00187775 0.00274283 0.000681418 0.00187775 0.000429855 0.00178229 0.00187775 0.000746501 0.000962407 0.00187775 0.000429855 0.000962407 5.77335e-05 0.000681418 -0.00339789 0.000429855 -0.00333101 -0.00339789 -0.00428253 -0.00333101 -0.00426681 0.000429855 -0.00333101 5.77335e-05 -0.00330144 -0.00333101 -0.00426681 -0.00330144 -0.00433359 0.000746501 0.000962407 -0.000203376 0.000129979 0.000962407 5.77335e-05 0.000129979 -0.000331325 -0.000203376 0.000129979 -0.00106052 -0.000571116 0.000129979 -0.000331325 -0.000571116 -0.000683143 5.77335e-05 -0.00330144 -0.000331325 -0.0032731 -0.00330144 -0.00433359 -0.0032731 -0.00439166 -0.000331325 -0.0032731 -0.000683143 -0.00327563 -0.0032731 -0.00439166 -0.00327563 -0.00447037 -0.000683143 -0.00327563 -0.00103641 -0.00334978 -0.00327563 -0.00447037 -0.00334978 -0.00454399 -0.00103641 -0.00334978 -0.00138125 -0.00348229 -0.00334978 -0.00454399 -0.00348229 -0.00456822 -0.00138125 -0.00348229 -0.00166519 -0.00360812 -0.00348229 -0.00456822 -0.00360812 -0.00459104 -0.00166519 -0.00360812 -0.00176959 -0.00366212 -0.00360812 -0.00459104 -0.00366212 -0.0046027 -0.00193797 0.00130859 -0.00230213 0.00111757 -0.00230213 0.00111757 -0.00267546 0.000799385 -0.00267546 0.000799385 -0.00299314 0.000373217 0.00369073 0.00231068 0.00414883 0.00282191 0.00231068 0.00136192 0.00282191 0.00200198 0.00105251 0.00669407 0.00103583 0.00669981 0.00109509 0.00692131 0.00106072 0.00673676 0.00106072 0.00673676 0.00105251 0.00669407 -0.00054269 0.00306258 -0.000427926 0.00312652 -0.00320731 -7.79697e-06 -0.00299017 0.000383821 -0.00149262 -0.00237629 -0.00100298 -0.00180811 -0.00100298 -0.00180811 -0.000403166 -0.00109709 0.0025332 0.00308533 0.00252121 0.00305226 -0.000403166 -0.00109709 0.000290067 -0.000277651 0.000620503 0.000290067 0.00107878 0.00101228 0.000290067 -0.000277651 0.00101228 0.00063919 -0.0028474 -0.00280814 -0.00272742 -0.00267806 -0.00280814 -0.00259375 -0.00267806 -0.00247284 -0.00272742 -0.00267806 -0.00237629 -0.00229852 -0.00267806 -0.00247284 -0.00229852 -0.00215841 0.00708091 0.000395069 0.00636675 0.000117765 0.00107858 0.00101257 0.000620499 0.00029042 0.00101257 0.000639793 0.00029042 -0.000277069 0.00029042 -0.000277069 -0.000402786 -0.00109657 -0.00299314 0.000373217 -0.00323554 -3.00273e-05 0.00360095 0.00527603 0.00333459 0.00501807 -0.00351085 -0.000500035 -0.00352621 -0.00054269 -0.00029408 0.00333459 -0.000500035 0.0031109 -0.000500035 0.0031109 -0.00054269 0.00306258 -0.00247552 -0.001645 -0.00180876 -0.00117466 -0.001645 -0.00138228 -0.00117466 -0.00103711 -0.00180876 -0.00117466 -0.00104678 -0.000570227 -0.00106052 -0.000571116 -0.00181677 -0.00117631 -0.00181677 -0.00117631 -0.00248271 -0.00164744 -0.00117631 -0.00103641 -0.00164744 -0.00138125 -0.000402786 -0.00109657 -0.00100263 -0.0018077 -0.00100263 -0.0018077 -0.00149235 -0.002376 -0.002376 -0.00229868 -0.00272727 -0.00267815 -0.00229868 -0.00215907 -0.00267815 -0.00247319 -0.00272727 -0.00267815 -0.0028474 -0.00280814 -0.00267815 -0.00247319 -0.00280814 -0.00259375 0.0138584 0.00784825 0.0134782 0.00708091 0.00521616 0.00429036 0.00680912 0.00592337 0.00680912 0.00592337 0.00847954 0.00780264 0.00847954 0.00780264 0.0100879 0.00972583 0.0101465 0.00983365 0.00861065 0.00797126 0.00861065 0.00797126 0.00698891 0.00612579 0.0112692 0.00547916 0.0115058 0.00564462 0.0115058 0.00564462 0.0121092 0.0060505 0.0119662 0.00586853 0.0114263 0.00555597 0.0114263 0.00555597 0.0112692 0.00547916 -0.00237629 -0.00229852 -0.00180811 -0.00172834 -0.00229852 -0.00215841 -0.00172834 -0.00164267 -0.00180811 -0.00172834 -0.00109709 -0.00102025 -0.00172834 -0.00164267 -0.00102025 -0.00105846 -0.00109657 -0.00102042 -0.0018077 -0.00172854 -0.00102042 -0.00105946 -0.00172854 -0.00164355 -0.0018077 -0.00172854 -0.002376 -0.00229868 -0.00172854 -0.00164355 -0.00229868 -0.00215907 -0.00180613 -0.0021853 -0.00121583 -0.00150223 -0.0021853 -0.00247552 -0.00150223 -0.00180876 -0.00121583 -0.00150223 -0.000561718 -0.000809805 -0.00150223 -0.00180876 -0.000809805 -0.00104678 -0.00051935 -0.000788523 -0.00119655 -0.00149903 -0.000788523 -0.00106052 -0.00149903 -0.00181677 -0.00119655 -0.00149903 -0.0018262 -0.00218672 -0.00149903 -0.00181677 -0.00218672 -0.00248271 0.00299582 0.00340347 0.00364309 0.00398588 0.00340347 0.00381112 0.00398588 0.00442935 0.00364309 0.00398588 0.00429036 0.00467722 0.00398588 0.00442935 0.00467722 0.00504757 0.00224224 -0.0016744 0.00213953 -0.00174333 0.00213953 -0.00174333 0.00199761 -0.00188076 0.00199761 -0.00188076 0.00180978 -0.00196741 -0.00188076 -0.0040226 -0.00196741 -0.0040025 0.00180978 -0.00196741 0.00159354 -0.00197924 0.00182723 -0.00175721 0.00189368 -0.00170572 0.00189368 -0.00170572 0.00207026 -0.0017002 0.00207026 -0.0017002 0.00216561 -0.0016653 0.00216561 -0.0016653 0.00226096 -0.00164054 -0.00240977 -0.00267029 -0.00236291 -0.00262004 -0.00267029 -0.00292512 -0.00262004 -0.00287402 -0.00236291 -0.00262004 -0.00222246 -0.00248681 -0.00262004 -0.00287402 -0.00248681 -0.00272206 -0.00292512 -0.00299058 -0.00287402 -0.00294641 -0.00299058 -0.00301089 -0.00294641 -0.00297396 -0.00287402 -0.00294641 -0.00272206 -0.00281891 -0.00294641 -0.00297396 -0.00281891 -0.00287001 0.00224181 -0.0016084 0.0022745 -0.00160787 0.0022745 -0.00160787 0.00228816 -0.00163163 0.00228816 -0.00163163 0.00224224 -0.0016744 0.00270871 0.00295225 0.00286878 0.00295697 0.00295225 0.00181399 0.00295697 0.0017933 0.00286878 0.00295697 0.00302885 0.00305971 0.00295697 0.0017933 0.00305971 0.0017757 0.00181399 -0.00175432 0.0017933 -0.00173179 -0.00175432 -0.00445266 -0.00173179 -0.00442836 0.0017933 -0.00173179 0.0017757 -0.00171977 -0.00173179 -0.00442836 -0.00171977 -0.00440582 0.00156622 -0.00195263 0.00173203 -0.00188368 0.00173203 -0.00188368 0.00189137 -0.0018299 0.00302885 0.00305971 0.0034066 0.00320155 0.00305971 0.0017757 0.00320155 0.00179023 0.0034066 0.00320155 0.00378436 0.00338912 0.00320155 0.00179023 0.00338912 0.00182723 0.00189137 -0.0018299 0.00202435 -0.00185239 0.00202435 -0.00185239 0.00208953 -0.00180874 -0.00185239 -0.00400095 -0.00180874 -0.00407785 0.00195513 -0.00180516 0.00184574 -0.00179316 0.00184574 -0.00179316 0.0018257 -0.00177788 -0.00179316 -0.00439139 -0.00177788 -0.00441585 0.0017757 -0.00171977 0.00179023 -0.00173496 -0.00171977 -0.00440582 -0.00173496 -0.00440491 0.00179023 -0.00173496 0.00182723 -0.00175721 -0.00173496 -0.00440491 -0.00175721 -0.00440904 -0.00222246 -0.00248681 -0.00201429 -0.00227919 -0.00248681 -0.00272206 -0.00227919 -0.00247921 -0.00201429 -0.00227919 -0.00180613 -0.00199572 -0.00227919 -0.00247921 -0.00199572 -0.0021853 0.00208953 -0.00180874 0.0020976 -0.00174117 0.0020976 -0.00174117 0.00206855 -0.00172928 0.00206855 -0.00172928 0.00203216 -0.00172872 0.00203216 -0.00172872 0.0020737 -0.00179729 -0.00440904 -0.00366294 -0.00433948 -0.00362787 -0.00366294 -0.00182302 -0.00362787 -0.00177247 -0.00433948 -0.00362787 -0.00428871 -0.00357408 -0.00362787 -0.00177247 -0.00357408 -0.00168992 -0.00272206 -0.00281891 -0.00247921 -0.00261274 -0.00281891 -0.00287001 -0.00261274 -0.00270312 -0.00247921 -0.00261274 -0.0021853 -0.00233041 -0.00261274 -0.00270312 -0.00233041 -0.00247552 -0.00428871 -0.00357408 -0.00423184 -0.00351178 -0.00357408 -0.00168992 -0.00351178 -0.00158745 -0.00423184 -0.00351178 -0.00417474 -0.00344489 -0.00351178 -0.00158745 -0.00344489 -0.00147716 -0.00182302 -0.00181457 -0.00177247 -0.00159128 -0.00181457 -0.00180613 -0.00159128 -0.00151098 -0.00177247 -0.00159128 -0.00168992 -0.00137817 -0.00159128 -0.00151098 -0.00137817 -0.00121583 0.00378436 0.00338912 0.0043051 0.00348639 0.00338912 0.00182723 0.00348639 0.00189368 0.0043051 0.00348639 0.00482584 0.00344805 0.00348639 0.00189368 0.00344805 0.00207026 -0.00168992 -0.00137817 -0.00158745 -0.00116523 -0.00137817 -0.00121583 -0.00116523 -0.000888776 -0.00158745 -0.00116523 -0.00147716 -0.000942769 -0.00116523 -0.000888776 -0.000942769 -0.000561718 0.0018257 -0.00177788 0.00177698 -0.00170632 0.00177698 -0.00170632 0.00177273 -0.00169799 0.0020737 -0.00179729 0.00201441 -0.00180506 -0.00179729 -0.00422738 -0.00180506 -0.00423583 0.00201441 -0.00180506 0.00195513 -0.00180516 -0.00180506 -0.00423583 -0.00180516 -0.0043401 0.00177273 -0.00169799 0.001773 -0.00170257 0.001773 -0.00170257 0.00181399 -0.00175432 0.00105347 -0.00213885 0.00115073 -0.00208956 0.00115073 -0.00208956 0.0012685 -0.00206108 0.0012685 -0.00206108 0.00140674 -0.00201357 0.00140674 -0.00201357 0.00156622 -0.00195263 0.001