# vtk DataFile Version 3.0
#This file was generated by the deal.II library on 2023/2/27 at 0:39:54
ASCII
DATASET UNSTRUCTURED_GRID

FIELD FieldData 2
CYCLE 1 1 int
108
TIME 1 1 double
0.216
POINTS 44368 double
0.447321 0.707107 -2.24884
0.877452 0.707107 -2.11836
0.476885 0.83147 -2.39746
0.935443 0.83147 -2.25836
0.476885 0.83147 -2.39746
0.935443 0.83147 -2.25836
0.510613 0.92388 -2.56703
1.0016 0.92388 -2.41809
3.32588 0 -2.22228
3.69552 0 -1.53073
3.3099 -0.19509 -2.21161
3.67777 -0.19509 -1.52338
2.11836 0.707107 -0.877452
2.24884 0.707107 -0.447321
2.25836 0.83147 -0.935443
2.39746 0.83147 -0.476885
2.25836 0.83147 -0.935443
2.39746 0.83147 -0.476885
2.41809 0.92388 -1.0016
2.56703 0.92388 -0.510613
2.41809 -0.92388 -1.0016
2.56703 -0.92388 -0.510613
2.25836 -0.83147 -0.935443
2.39746 -0.83147 -0.476885
2.25836 -0.83147 -0.935443
2.39746 -0.83147 -0.476885
2.11836 -0.707107 -0.877452
2.24884 -0.707107 -0.447321
0.510613 -0.92388 -2.56703
1.0016 -0.92388 -2.41809
0.476885 -0.83147 -2.39746
0.935443 -0.83147 -2.25836
0.476885 -0.83147 -2.39746
0.935443 -0.83147 -2.25836
0.447321 -0.707107 -2.24884
0.877452 -0.707107 -2.11836
2.05956 -0.707107 -3.08235
2.62132 -0.707107 -2.62132
1.97537 -0.83147 -2.95635
2.51417 -0.83147 -2.51417
1.97537 -0.83147 -2.95635
2.51417 -0.83147 -2.51417
1.87932 -0.92388 -2.8126
2.39192 -0.92388 -2.39192
1.80307 0.55557 -1.20477
2.00346 0.55557 -0.829861
1.90647 0.707107 -1.27386
2.11836 0.707107 -0.877452
1.90647 -0.707107 -1.27386
2.11836 -0.707107 -0.877452
1.80307 -0.55557 -1.20477
2.00346 -0.55557 -0.829861
3.08235 -0.707107 -2.05956
3.42492 -0.707107 -1.41865
2.95635 -0.83147 -1.97537
3.28492 -0.83147 -1.36066
2.51417 -0.83147 -2.51417
2.95635 -0.83147 -1.97537
2.39192 -0.92388 -2.39192
2.8126 -0.92388 -1.87932
2.39192 -0.92388 -2.39192
2.8126 -0.92388 -1.87932
2.25927 -0.980785 -2.25927
2.65662 -0.980785 -1.7751
2.25927 -0.980785 -2.25927
2.65662 -0.980785 -1.7751
2.12132 -1 -2.12132
2.49441 -1 -1.66671
2.25927 0.980785 -2.25927
2.65662 0.980785 -1.7751
2.39192 0.92388 -2.39192
2.8126 0.92388 -1.87932
2.39192 0.92388 -2.39192
2.8126 0.92388 -1.87932
2.51417 0.83147 -2.51417
2.95635 0.83147 -1.97537
2.95635 0.83147 -1.97537
3.28492 0.83147 -1.36066
3.08235 0.707107 -2.05956
3.42492 0.707107 -1.41865
1.87932 -0.92388 -2.8126
2.39192 -0.92388 -2.39192
1.7751 -0.980785 -2.65662
2.25927 -0.980785 -2.25927
1.7751 -0.980785 -2.65662
2.25927 -0.980785 -2.25927
1.66671 -1 -2.49441
2.12132 -1 -2.12132
1.7751 0.980785 -2.65662
2.25927 0.980785 -2.25927
1.87932 0.92388 -2.8126
2.39192 0.92388 -2.39192
1.87932 0.92388 -2.8126
2.39192 0.92388 -2.39192
1.97537 0.83147 -2.95635
2.51417 0.83147 -2.51417
1.97537 0.83147 -2.95635
2.51417 0.83147 -2.51417
2.05956 0.707107 -3.08235
2.62132 0.707107 -2.62132
-2.62132 -0.707107 -2.62132
-2.05956 -0.707107 -3.08235
-2.51417 -0.83147 -2.51417
-1.97537 -0.83147 -2.95635
-2.51417 -0.83147 -2.51417
-1.97537 -0.83147 -2.95635
-2.39192 -0.92388 -2.39192
-1.87932 -0.92388 -2.8126
-2.39192 -0.92388 -2.39192
-1.87932 -0.92388 -2.8126
-2.25927 -0.980785 -2.25927
-1.7751 -0.980785 -2.65662
-2.25927 0.980785 -2.25927
-1.7751 0.980785 -2.65662
-2.39192 0.92388 -2.39192
-1.87932 0.92388 -2.8126
-2.39192 0.92388 -2.39192
-1.87932 0.92388 -2.8126
-2.51417 0.83147 -2.51417
-1.97537 0.83147 -2.95635
-2.51417 0.83147 -2.51417
-1.97537 0.83147 -2.95635
-2.62132 0.707107 -2.62132
-2.05956 0.707107 -3.08235
-1.97537 -0.83147 2.95635
-2.51417 -0.83147 2.51417
-1.87932 -0.92388 2.8126
-2.39192 -0.92388 2.39192
3.67777 0.19509 1.52338
3.3099 0.19509 2.21161
3.69552 0 1.53073
3.32588 0 2.22228
-0.877452 0.707107 -2.11836
-0.447321 0.707107 -2.24884
-0.935443 0.83147 -2.25836
-0.476885 0.83147 -2.39746
-0.935443 0.83147 -2.25836
-0.476885 0.83147 -2.39746
-1.0016 0.92388 -2.41809
-0.510613 0.92388 -2.56703
-1.0016 -0.92388 -2.41809
-0.510613 -0.92388 -2.56703
-0.935443 -0.83147 -2.25836
-0.476885 -0.83147 -2.39746
-0.935443 -0.83147 -2.25836
-0.476885 -0.83147 -2.39746
-0.877452 -0.707107 -2.11836
-0.447321 -0.707107 -2.24884
1.53073 0 -3.69552
2.22228 0 -3.32588
1.52338 -0.19509 -3.67777
2.21161 -0.19509 -3.3099
2.17999 -0.382683 -3.26259
2.7746 -0.382683 -2.7746
2.12865 -0.55557 -3.18575
2.70926 -0.55557 -2.70926
2.12865 -0.55557 -3.18575
2.70926 -0.55557 -2.70926
2.05956 -0.707107 -3.08235
2.62132 -0.707107 -2.62132
2.05956 0.707107 -3.08235
2.62132 0.707107 -2.62132
2.12865 0.55557 -3.18575
2.70926 0.55557 -2.70926
2.12865 0.55557 -3.18575
2.70926 0.55557 -2.70926
2.17999 0.382683 -3.26259
2.7746 0.382683 -2.7746
1.52338 0.19509 -3.67777
2.21161 0.19509 -3.3099
1.53073 0 -3.69552
2.22228 0 -3.32588
3.26259 -0.382683 -2.17999
3.62519 -0.382683 -1.5016
3.18575 -0.55557 -2.12865
3.53982 -0.55557 -1.46624
2.70926 -0.55557 -2.70926
3.18575 -0.55557 -2.12865
2.62132 -0.707107 -2.62132
3.08235 -0.707107 -2.05956
3.18575 -0.55557 -2.12865
3.53982 -0.55557 -1.46624
3.08235 -0.707107 -2.05956
3.42492 -0.707107 -1.41865
-1.72623 0.382683 1.15343
-1.91809 0.382683 0.794497
-1.80307 0.55557 1.20477
-2.00346 0.55557 0.829861
-1.80307 -0.55557 1.20477
-2.00346 -0.55557 0.829861
-1.72623 -0.382683 1.15343
-1.91809 -0.382683 0.794497
-2.65662 -0.980785 -1.7751
-2.25927 -0.980785 -2.25927
-2.49441 -1 -1.66671
-2.12132 -1 -2.12132
-2.49441 1 -1.66671
-2.12132 1 -2.12132
-2.65662 0.980785 -1.7751
-2.25927 0.980785 -2.25927
-2.62132 -0.707107 2.62132
-3.08235 -0.707107 2.05956
-2.51417 -0.83147 2.51417
-2.95635 -0.83147 1.97537
-2.39192 -0.92388 2.39192
-2.8126 -0.92388 1.87932
-2.25927 -0.980785 2.25927
-2.65662 -0.980785 1.7751
-2.25927 -0.980785 2.25927
-2.65662 -0.980785 1.7751
-2.12132 -1 2.12132
-2.49441 -1 1.66671
-2.12132 1 2.12132
-2.49441 1 1.66671
-2.25927 0.980785 2.25927
-2.65662 0.980785 1.7751
-2.25927 0.980785 2.25927
-2.65662 0.980785 1.7751
-2.39192 0.92388 2.39192
-2.8126 0.92388 1.87932
-2.51417 0.83147 2.51417
-2.95635 0.83147 1.97537
-2.62132 0.707107 2.62132
-3.08235 0.707107 2.05956
3.69552 0 1.53073
3.32588 0 2.22228
3.67777 -0.19509 1.52338
3.3099 -0.19509 2.21161
-3.26259 -0.382683 -2.17999
-2.7746 -0.382683 -2.7746
-3.18575 -0.55557 -2.12865
-2.70926 -0.55557 -2.70926
-3.18575 -0.55557 -2.12865
-2.70926 -0.55557 -2.70926
-3.08235 -0.707107 -2.05956
-2.62132 -0.707107 -2.62132
3.26259 0.382683 -2.17999
3.62519 0.382683 -1.5016
3.3099 0.19509 -2.21161
3.67777 0.19509 -1.52338
2.81484 0.19509 -2.81484
3.3099 0.19509 -2.21161
2.82843 0 -2.82843
3.32588 0 -2.22228
3.3099 0.19509 -2.21161
3.67777 0.19509 -1.52338
3.32588 0 -2.22228
3.69552 0 -1.53073
2.62132 0.707107 -2.62132
3.08235 0.707107 -2.05956
2.70926 0.55557 -2.70926
3.18575 0.55557 -2.12865
3.08235 0.707107 -2.05956
3.42492 0.707107 -1.41865
3.18575 0.55557 -2.12865
3.53982 0.55557 -1.46624
3.18575 0.55557 -2.12865
3.53982 0.55557 -1.46624
3.26259 0.382683 -2.17999
3.62519 0.382683 -1.5016
-3.08235 -0.707107 -2.05956
-2.62132 -0.707107 -2.62132
-2.95635 -0.83147 -1.97537
-2.51417 -0.83147 -2.51417
-2.95635 -0.83147 -1.97537
-2.51417 -0.83147 -2.51417
-2.8126 -0.92388 -1.87932
-2.39192 -0.92388 -2.39192
-2.8126 0.92388 -1.87932
-2.39192 0.92388 -2.39192
-2.95635 0.83147 -1.97537
-2.51417 0.83147 -2.51417
-2.95635 0.83147 -1.97537
-2.51417 0.83147 -2.51417
-3.08235 0.707107 -2.05956
-2.62132 0.707107 -2.62132
-2.7746 -0.382683 2.7746
-3.26259 -0.382683 2.17999
-2.70926 -0.55557 2.70926
-3.18575 -0.55557 2.12865
-2.70926 -0.55557 2.70926
-3.18575 -0.55557 2.12865
-2.62132 -0.707107 2.62132
-3.08235 -0.707107 2.05956
-2.62132 0.707107 2.62132
-3.08235 0.707107 2.05956
-2.70926 0.55557 2.70926
-3.18575 0.55557 2.12865
-2.70926 0.55557 2.70926
-3.18575 0.55557 2.12865
-2.7746 0.382683 2.7746
-3.26259 0.382683 2.17999
-3.08235 0.707107 -2.05956
-2.62132 0.707107 -2.62132
-3.18575 0.55557 -2.12865
-2.70926 0.55557 -2.70926
-3.18575 0.55557 -2.12865
-2.70926 0.55557 -2.70926
-3.26259 0.382683 -2.17999
-2.7746 0.382683 -2.7746
3.53982 0.55557 1.46624
3.18575 0.55557 2.12865
3.62519 0.382683 1.5016
3.26259 0.382683 2.17999
-2.7746 -0.382683 -2.7746
-2.17999 -0.382683 -3.26259
-2.70926 -0.55557 -2.70926
-2.12865 -0.55557 -3.18575
-2.17999 -0.382683 -3.26259
-1.5016 -0.382683 -3.62519
-2.12865 -0.55557 -3.18575
-1.46624 -0.55557 -3.53982
-2.70926 -0.55557 -2.70926
-2.12865 -0.55557 -3.18575
-2.62132 -0.707107 -2.62132
-2.05956 -0.707107 -3.08235
-2.62132 0.707107 -2.62132
-2.05956 0.707107 -3.08235
-2.70926 0.55557 -2.70926
-2.12865 0.55557 -3.18575
-2.70926 0.55557 -2.70926
-2.12865 0.55557 -3.18575
-2.7746 0.382683 -2.7746
-2.17999 0.382683 -3.26259
-2.12865 0.55557 -3.18575
-1.46624 0.55557 -3.53982
-2.17999 0.382683 -3.26259
-1.5016 0.382683 -3.62519
-0.384607 -0.382683 3.90498
-0.765511 -0.382683 3.84848
-0.380495 -0.471397 3.86323
-0.757325 -0.471397 3.80733
-0.380495 -0.471397 3.86323
-0.757325 -0.471397 3.80733
-0.37555 -0.55557 3.81302
-0.747483 -0.55557 3.75785
-0.37555 -0.55557 3.81302
-0.747483 -0.55557 3.75785
-0.36982 -0.634393 3.75484
-0.736078 -0.634393 3.70051
-0.36982 -0.634393 3.75484
-0.736078 -0.634393 3.70051
-0.36336 -0.707107 3.68926
-0.723221 -0.707107 3.63588
-1.88559 0 3.52769
-2.22228 0 3.32588
-1.88332 -0.0980171 3.52344
-2.21961 -0.0980171 3.32187
-1.88332 -0.0980171 3.52344
-2.21961 -0.0980171 3.32187
-1.87653 -0.19509 3.51074
-2.21161 -0.19509 3.3099
3.96162 0.19509 0.390185
3.9043 0.19509 0.776613
3.97595 0.0980171 0.391597
3.91842 0.0980171 0.779422
3.97595 0.0980171 0.391597
3.91842 0.0980171 0.779422
3.98074 0 0.392069
3.92314 0 0.780361
-0.392069 0 3.98074
-0.780361 0 3.92314
-0.391597 -0.0980171 3.97595
-0.779422 -0.0980171 3.91842
-0.391597 -0.0980171 3.97595
-0.779422 -0.0980171 3.91842
-0.390185 -0.19509 3.96162
-0.776613 -0.19509 3.9043
-1.52338 -0.19509 3.67777
-1.87653 -0.19509 3.51074
-1.51426 -0.290285 3.65574
-1.86529 -0.290285 3.48971
-1.87653 -0.19509 3.51074
-2.21161 -0.19509 3.3099
-1.86529 -0.290285 3.48971
-2.19836 -0.290285 3.29008
-1.51426 -0.290285 3.65574
-1.86529 -0.290285 3.48971
-1.5016 -0.382683 3.62519
-1.8497 -0.382683 3.46055
-0.390185 -0.19509 3.96162
[...]
POINT_DATA 44368
SCALARS U double 1
LOOKUP_TABLE default
-0.00190688 0.00395458 -0.00165714 0.00438262 -0.00165714 0.00438262 -0.00141339 0.00470365 -0.000732339 -0.000313686 -0.000555049 -0.000181478 0.00387778 -0.0014245 0.00422356 -0.00128498 0.00422356 -0.00128498 0.00446648 -0.00121736 0.00446255 -0.00118346 0.00422181 -0.00126088 0.00422181 -0.00126088 0.00387554 -0.00140961 -0.00141084 0.00469751 -0.00165652 0.0043791 -0.00165652 0.0043791 -0.00190642 0.00395331 0.00205303 0.00166452 0.00336005 0.00312378 0.00336005 0.00312378 0.00474317 0.00473931 0.00883331 0.00354426 0.0092348 0.00387778 0.00923634 0.00387554 0.00883202 0.00354201 0.00188642 0.0015694 0.00325421 0.0024464 0.00312378 0.00325421 0.00473931 0.00467371 0.00473931 0.00467371 0.00641354 0.00610786 0.00641354 0.00610786 0.0080811 0.00742234 0.00643811 0.00611412 0.00473762 0.00465973 0.00473762 0.00465973 0.0031239 0.00323883 0.00323883 0.00246123 0.00187364 0.00156765 0.00474317 0.00473931 0.00611773 0.00641354 0.00611773 0.00641354 0.00739268 0.0080811 0.00615011 0.00643811 0.00476085 0.00473762 0.00476085 0.00473762 0.00337383 0.0031239 0.00337383 0.0031239 0.00206427 0.00166864 0.00136238 0.00152767 0.00293908 0.00305942 0.00293908 0.00305942 0.00466536 0.00469401 0.00466536 0.00469401 0.00646342 0.00631392 0.00646371 0.00631396 0.00466567 0.00469396 0.00466567 0.00469396 0.00293939 0.00305932 0.00293939 0.00305932 0.00136267 0.00152754 0.00308998 0.00302774 0.00482472 0.00485064 0.00111529 0.00300521 0.000879349 0.00287216 0.00380814 -0.00213718 0.00439272 -0.00194724 0.00439272 -0.00194724 0.00480129 -0.00180733 0.00480127 -0.00180675 0.00439263 -0.00194684 0.00439263 -0.00194684 0.00380801 -0.00213701 -0.000187898 -0.000632941 -3.50752e-05 -0.00043037 8.12677e-05 -0.000511214 0.000940951 0.00042924 0.000940951 0.00042924 0.00205303 0.00166452 0.00206427 0.00166864 0.000947863 0.000436249 0.000947863 0.000436249 7.8607e-05 -0.000503428 -3.36632e-05 -0.000434655 -0.000187898 -0.000632941 -6.33198e-05 0.000197619 0.000758971 0.000796302 0.00042924 0.000758971 0.00166452 0.00188642 0.000758971 0.000796302 0.00188642 0.0015694 0.0092098 0.00258964 0.00995358 0.00306904 0.00992593 0.00306473 0.0091816 0.00259457 0.0066623 0.00646342 0.00813823 0.0082373 0.00813824 0.00823754 0.0066624 0.00646371 0.00139016 0.00169529 0.00302774 0.00321992 0.00485064 0.00485938 0.00673553 0.00655908 0.00673553 0.00655908 0.00862889 0.00822217 0.00863332 0.00821334 0.00673092 0.0065495 0.00673092 0.0065495 0.00484105 0.00484996 0.0030687 0.00320815 0.00150293 0.00169495 0.000879349 0.00287216 0.00106887 0.00295531 -0.000228678 -0.00104696 0.000738509 4.48649e-06 0.000738509 4.48649e-06 0.00200132 0.00136238 -6.9657e-05 0.000179913 -0.000566159 -0.000191204 -0.00107616 -0.000566159 -0.00128017 -0.000732339 -0.000566159 -0.000191204 -0.000732339 -0.000313686 0.00166864 0.00187364 0.000436249 0.000752083 0.00187364 0.00156765 0.000752083 0.000783135 0.000752083 0.000783135 -6.9657e-05 0.000179913 0.00200132 0.00136238 0.00347398 0.00293908 0.00347398 0.00293908 0.00506119 0.00466536 0.00506138 0.00466567 0.00347421 0.00293939 0.00347421 0.00293939 0.00200158 0.00136267 -0.00120477 -0.000678965 -5.15344e-05 0.000377102 -5.15344e-05 0.000377102 0.00139016 0.00169529 0.00150293 0.00169495 0.000158185 0.00037968 0.000158185 0.00037968 -0.00100146 -0.000684139 0.00200158 0.00136267 0.000738751 4.72128e-06 0.000738751 4.72128e-06 -0.00022849 -0.00104679 0.00233898 0.00466242 0.00133379 0.00358073 -0.00104696 -0.000794893 4.48649e-06 0.000217926 -0.000794893 -0.000291842 0.000217926 0.000541485 4.48649e-06 0.000217926 0.00136238 0.00152767 0.00136267 0.00152754 4.72128e-06 0.000217792 4.72128e-06 0.000217792 -0.00104679 -0.000795001 0.000217792 0.000540812 -0.000795001 -0.000292348 -0.00354547 -0.000834353 -0.00349817 -0.000715995 -0.00349817 -0.000715995 -0.00344458 -0.000562794 -0.00344458 -0.000562794 -0.00339125 -0.00037037 -0.00339125 -0.00037037 -0.00331767 -0.000237549 -0.00143318 -0.0016515 -0.00139028 -0.00161764 -0.00139028 -0.00161764 -0.00125049 -0.00147646 -0.00366754 -0.00183943 -0.00366282 -0.00190942 -0.00366282 -0.00190942 -0.00367684 -0.00193986 -0.00364445 -0.00100568 -0.00363311 -0.000999434 -0.00363311 -0.000999434 -0.00361296 -0.000972367 -0.000830528 -0.00125049 -0.000516772 -0.00100744 -0.00125049 -0.00147646 -0.00100744 -0.00122208 -0.000516772 -0.00100744 -0.000121667 -0.000663939 -0.00361296 -0.000972367 -0.00358358 -0.000918858 -0.00358358 -0.000918858 -0.00354547 -0.000834353 -0.00144868 -0.00161561 -0.0010687 -0.00120477 -0.000313686 -0.000873238 -0.000247582 -0.000859244 -0.000873238 -0.00237282 -0.000859244 -0.00236057 -0.000247582 -0.000859244 -0.000181478 -0.000787731 -0.000859244 -0.00236057 -0.000787731 -0.00232135 -0.00478383 -0.00353994 -0.00481134 -0.00361101 -0.00353994 -0.00158956 -0.00361101 -0.00173992 -0.00481134 -0.00361101 -0.00485486 -0.00366754 -0.00361101 -0.00173992 -0.00366754 -0.00183943 -0.00158956 0.00130801 -0.00173992 0.000507794 0.00130801 0.00133379 0.000507794 0.00139427 -0.00173992 0.000507794 -0.00183943 0.000368946 0.000507794 0.00139427 0.000368946 0.00111529 -0.00183943 0.000368946 -0.00190942 0.000292855 0.000368946 0.00111529 0.000292855 0.000997319 -0.00190942 0.000292855 -0.00193986 0.000278261 0.000292855 0.000997319 0.000278261 0.000879349 -0.00114666 0.0019997 -0.00125536 0.00324852 0.0019997 0.00501261 0.00324852 0.00555298 -0.00125536 0.00324852 -0.00118011 0.00394838 0.00324852 0.00555298 0.00394838 0.00582318 -0.00118011 0.00394838 -0.00103933 0.00351864 -0.00103933 0.00351864 -0.000966276 0.00361517 -0.000181478 -0.000787731 -3.29147e-05 -0.000670586 -0.000787731 -0.00232135 -0.000670586 -0.00225041 -3.29147e-05 -0.000670586 0.000197619 -0.000509935 -0.000670586 -0.00225041 -0.000509935 -0.00214661 -0.000966276 0.00361517 -0.000911742 0.00373678 -0.000911742 0.00373678 -0.000797425 0.00344939 -0.000797425 0.00344939 -0.000696142 0.00310143 -0.000696142 0.00310143 -0.000640016 0.00281887 0.00310143 0.00932725 0.00281887 0.00909944 -0.00443136 -0.00324125 -0.00428859 -0.00308765 -0.00324125 -0.00114666 -0.00308765 -0.00125536 -0.00428859 -0.00308765 -0.00416707 -0.00297762 -0.00308765 -0.00125536 -0.00297762 -0.00118011 -0.00416707 -0.00297762 -0.00405816 -0.00290048 -0.00297762 -0.00118011 -0.00290048 -0.00103933 -0.00405816 -0.00290048 -0.00396787 -0.00282861 -0.00290048 -0.00103933 -0.00282861 -0.000966276 -0.000696017 0.00305686 -0.000681101 0.0031676 0.00305686 0.00923738 0.0031676 0.00937394 -0.000681101 0.0031676 -0.000757152 0.00350899 -0.000757152 0.00350899 -0.000852604 0.00380146 -0.000852604 0.00380146 -0.000895656 0.00371996 -0.00367684 -0.00193986 -0.00367762 -0.0019285 -0.00367762 -0.0019285 -0.0036581 -0.00189112 -0.00193986 0.000278261 -0.0019285 0.000274255 0.000278261 0.000879349 0.000274255 0.00097411 -0.0019285 0.000274255 -0.00189112 0.000329377 0.000274255 0.00097411 0.000329377 0.00106887 -0.00396787 -0.00282861 -0.00389229 -0.00277198 -0.00282861 -0.000966276 -0.00277198 -0.000911742 -0.00389229 -0.00277198 -0.00382687 -0.00274896 -0.00277198 -0.000911742 -0.00274896 -0.000797425 -0.00382687 -0.00274896 -0.00378094 -0.00274137 -0.00274896 -0.000797425 -0.00274137 -0.000696142 -0.00378094 -0.00274137 -0.00377866 -0.00272644 -0.00274137 -0.000696142 -0.00272644 -0.000640016 -0.000895656 0.00371996 -0.000998886 0.00383233 -0.000998886 0.00383233 -0.00107206 0.00404897 0.00383233 0.00644799 0.00404897 0.0059375 -0.00107206 0.00404897 -0.00114268 0.00336936 0.00404897 0.0059375 0.00336936 0.00567624 -0.00114268 0.00336936 -0.00102344 0.00211209 0.00336936 0.00567624 0.00211209 0.00497622 -0.00380003 -0.00273645 -0.00379452 -0.00274167 -0.00273645 -0.000696017 -0.00274167 -0.000681101 -0.00379452 -0.00274167 -0.00383203 -0.00273099 -0.00274167 -0.000681101 -0.00273099 -0.000757152 -0.00383203 -0.00273099 -0.00388517 -0.00273718 -0.00273099 -0.000757152 -0.00273718 -0.000852604 -0.00388517 -0.00273718 -0.00394779 -0.00277723 -0.00273718 -0.000852604 -0.00277723 -0.000895656 -0.0036581 -0.00189112 -0.00365839 -0.00180991 -0.00488085 -0.00365839 -0.00482892 -0.00360815 -0.00365839 -0.00180991 -0.00360815 -0.00167637 -0.00189112 0.000329377 -0.00180991 0.00043746 0.000329377 0.00106887 0.00043746 0.00131583 -0.00180991 0.00043746 -0.00167637 0.00116748 0.00043746 0.00131583 0.00116748 0.00137239 -0.00394779 -0.00277723 -0.0040284 -0.00282288 -0.00277723 -0.000895656 -0.00282288 -0.000998886 -0.0040284 -0.00282288 -0.00412301 -0.00289933 -0.00282288 -0.000998886 -0.00289933 -0.00107206 -0.00412301 -0.00289933 -0.0042358 -0.00299998 -0.00289933 -0.00107206 -0.00299998 -0.00114268 -0.0042358 -0.00299998 -0.00434807 -0.00316082 -0.00299998 -0.00114268 -0.00316082 -0.00102344 0.000197619 -0.000509935 0.000496961 -0.000316027 -0.000509935 -0.00214661 -0.000316027 -0.00201938 0.000496961 -0.000316027 0.000796302 -8.35464e-05 -0.000316027 -0.00201938 -8.35464e-05 -0.00188578 -0.000834353 0.00013869 -0.000715995 0.000498885 0.00013869 -0.000121667 0.000498885 0.00034103 -0.000715995 0.000498885 -0.000562794 0.000938573 0.000498885 0.00034103 0.000938573 0.000864403 0.000796302 -8.35464e-05 0.00118285 0.000156633 -8.35464e-05 -0.00188578 0.000156633 -0.00174421 0.00118285 0.000156633 0.0015694 0.000416463 0.000156633 -0.00174421 0.000416463 -0.00160612 -0.00232135 -0.00420353 -0.00225041 -0.00414905 -0.00420353 -0.00487225 -0.00414905 -0.00488085 -0.00225041 -0.00414905 -0.00214661 -0.00408631 -0.0045746 -0.00352022 -0.00467043 -0.00360557 -0.00352022 -0.000684512 -0.00360557 -0.000862295 -0.00360557 -0.000862295 -0.00353994 -0.00158956 -0.00236057 -0.00423207 -0.00232135 -0.00420353 -0.00423207 -0.00488829 -0.00420353 -0.00487225 -0.00214661 -0.00408631 -0.00201938 -0.00401025 -0.00408631 -0.00482892 -0.00401025 -0.00471461 -0.00201938 -0.00401025 -0.00188578 -0.00390698 -0.00316082 -0.00102344 -0.00343095 -0.000536239 -0.00343095 -0.000536239 -0.00352022 -0.000684512 -0.00188578 -0.00390698 -0.00174421 -0.00379895 -0.00390698 -0.00461712 -0.00379895 -0.00451871 -0.00174421 -0.00379895 -0.00160612 -0.00368694 -0.00379895 -0.00451871 -0.00368694 -0.00443136 -0.00102344 0.00211209 -0.000536239 0.00172763 -0.000536239 0.00172763 -0.000684512 0.0017022 0.00172763 0.00369974 0.0017022 0.00233898 -0.000684512 0.0017022 -0.000862295 0.00150571 0.0017022 0.00233898 0.00150571 0.00183639 -0.000862295 0.00150571 -0.00158956 0.00130801 0.00150571 0.00183639 0.00130801 0.00133379 -0.00100568 -0.000498736 -0.000999434 -0.000448654 -0.000498736 -0.0011269 -0.000448654 -0.0010385 -0.000999434 -0.000448654 -0.000972367 -0.000329428 -0.000448654 -0.0010385 -0.000329428 -0.000830528 -0.000972367 -0.000329428 -0.000918858 -0.000136226 -0.000329428 -0.000830528 -0.000136226 -0.000516772 -0.000918858 -0.000136226 -0.000834353 0.00013869 -0.000136226 -0.000516772 0.00013869 -0.000121667 0.0193239 0.0200301 0.0188217 0.0194061 0.0201044 0.0164132 0.01993 0.0170826 -0.000366343 0.00323943 -0.000264782 0.00321384 0.00323943 0.00558477 0.00321384 0.00513902 -0.000264782 0.00321384 -0.000169856 0.0031281 0.00321384 0.00513902 0.0031281 0.00461332 0.0106974 0.0128229 0.0108693 0.0127579 0.0128229 0.0135374 0.0127579 0.0133022 0.0184198 0.0187664 0.0189779 0.0194703 -0.000562794 0.000938573 -0.00037037 0.00140104 0.0125079 0.0129283 0.0121315 0.0124208 0.0121315 0.0124208 0.0116123 0.0118084 -0.00216968 -0.00407452 -0.00227267 -0.0041107 0.0116123 0.0118084 0.0109705 0.011102 0.0109705 0.011102 0.010236 0.0103391 0.00426931 0.00772906 0.0046293 0.00802031 0.00772906 0.0106974 0.00802031 0.0108693 0.0046293 0.00802031 0.00500811 0.00826895 0.00802031 0.0108693 0.00826895 0.0109025 0.0102381 0.0103414 0.0109888 0.0111104 0.0109888 0.0111104 0.0116427 0.0118201 0.000179913 -0.000527039 -5.64545e-06 -0.000690637 -0.000527039 -0.00216968 -0.000690637 -0.00227267 -5.64545e-06 -0.000690637 -0.000191204 -0.00079557 -0.000690637 -0.00227267 -0.00079557 -0.00233063 0.0209538 0.0181572 0.0210056 0.0185492 -0.000191204 -0.00079557 -0.000252445 -0.000864414 -0.00079557 -0.00233063 -0.000864414 -0.00236109 -0.000252445 -0.000864414 -0.000313686 -0.000873238 -0.000864414 -0.00236109 -0.000873238 -0.00237282 0.00974777 0.0103083 0.00978195 0.0103478 0.00978195 0.0103478 0.0098754 0.010459 0.0210056 0.0185492 0.0210234 0.0194231 0.0210234 0.0194231 0.0209958 0.0196242 0.00298111 0.0057299 0.00308323 0.00587331 0.00308323 0.00587331 0.00321832 0.00605963 0.00587331 0.00838113 0.00605963 0.00855899 0.0098754 0.010459 0.010057 0.0105734 0.00838113 0.010057 0.00855899 0.0102377 0.010057 0.0105734 0.0102377 0.0107658 -0.00167637 0.00116748 -0.000980297 0.00139259 0.00116748 0.00137239 0.00139259 0.00164327 -0.000980297 0.00139259 -0.000803741 0.00156302 0.00139259 0.00164327 0.00156302 0.00214756 -0.00360034 -0.000803741 -0.00351506 -0.000654386 -0.00351506 -0.000654386 -0.00324125 -0.00114666 0.00500811 0.00826895 0.00536859 0.00844619 0.00826895 0.0109025 0.00844619 0.0108319 0.00536859 0.00844619 0.00569564 0.00853736 0.00844619 0.0108319 0.00853736 0.0106121 0.00321832 0.00605963 0.00338383 0.00626259 0.00605963 0.00855899 0.00626259 0.00876822 0.00338383 0.00626259 0.00357478 0.00646144 0.00855899 0.0102377 0.00876822 0.0104412 0.0102377 0.0107658 0.0104412 0.01097 0.0104412 0.01097 0.0106045 0.0111657 0.00913875 0.0107717 0.00926028 0.0108439 0.0107717 0.0112964 0.0108439 0.0113611 0.00569564 0.00853736 0.00595541 0.00852134 0.00853736 0.0106121 0.00852134 0.0102431 0.00595541 0.00852134 0.00611754 0.00838464 0.00852134 0.0102431 0.00838464 0.00974035 0.00618026 0.00836899 0.00602736 0.00854273 0.00836899 0.0097363 0.00854273 0.0102642 0.00602736 0.00854273 0.00578881 0.00859709 0.00854273 0.0102642 0.00859709 0.0106596 -0.00473284 -0.00403795 -0.00471605 -0.00403275 -0.00359143 -0.00025874 -0.00368193 -0.000401351 -0.00368193 -0.000401351 -0.00376417 -0.000549568 -0.00445474 -0.00259167 -0.00442178 -0.00254773 -0.00442178 -0.00254773 -0.00437976 -0.00247181 -0.00437976 -0.00247181 -0.00433234 -0.00238213 -0.00433234 -0.00238213 -0.00429048 -0.00229052 0.0103083 0.00963601 0.0103478 0.00967636 0.00963601 0.00789371 0.00967636 0.00792826 0.0103478 0.00967636 0.010459 0.00978854 0.00978854 0.00802757 0.00992072 0.00818891 0.0105307 0.00883331 0.0106908 0.00903406 0.0106908 0.00903406 0.0107828 0.0092348 0.0187944 0.0195048 0.0190731 0.0200023 0.021056 0.0196058 0.0210847 0.0193899 0.0210847 0.0193899 0.0210471 0.018507 0.0116427 0.0118201 0.012172 0.0124355 0.012172 0.0124355 0.0125603 0.0129474 0.0210471 0.018507 0.0209746 0.0180983 0.00357478 0.00646144 0.00377546 0.00668587 0.00377546 0.00668587 0.00395458 0.00688011 0.00668587 0.00913875 0.00688011 0.00926028 0.0109576 0.0127869 0.010789 0.0128328 0.0107854 0.00923634 0.0106917 0.00903418 0.0106917 0.00903418 0.0105306 0.00883202 -0.0034039 -0.00029525 -0.00345769 -0.000443138 -0.00345769 -0.000443138 -0.00350043 -0.00059993 -0.00350043 -0.00059993 -0.00355592 -0.000701534 -0.00355592 -0.000701534 -0.00358692 -0.00083174 -0.00360815 -0.00167637 -0.00367759 -0.000980297 -0.00471461 -0.00367759 -0.00461712 -0.00360034 -0.00367759 -0.000980297 -0.00360034 -0.000803741 -0.000803741 0.00156302 -0.000654386 0.00158515 0.00156302 0.00214756 0.00158515 0.00357641 -0.000654386 0.00158515 -0.00114666 0.0019997 0.00158515 0.00357641 0.0019997 0.00501261 0.00991981 0.00818741 0.00978789 0.00802651 0.0104588 0.00978789 0.0103476 0.00967603 0.0103476 0.00967603 0.0103083 0.00963601 0.00967603 0.00792772 0.00963601 0.00789371 0.0015694 0.000416463 0.0020079 0.000664137 0.000416463 -0.00160612 0.000664137 -0.00145149 0.0020079 0.000664137 0.0024464 0.000905143 0.000664137 -0.00145149 0.000905143 -0.00132048 0.0024464 0.000905143 0.00282273 0.00113917 0.000905143 -0.00132048 0.00113917 -0.00121239 0.00282273 0.00113917 0.00320602 0.00133575 0.00113917 -0.00121239 0.00133575 -0.00112605 -0.00471605 -0.00403275 -0.00470819 -0.00399252 -0.00403275 -0.00212056 -0.00399252 -0.00200915 -0.00470819 -0.00399252 -0.00470749 -0.00394631 -0.00399252 -0.00200915 -0.00394631 -0.00190688 0.0188217 0.0194061 0.0182949 0.0187185 0.00133575 -0.00112605 0.00148332 -0.00106459 0.00356432 0.00148332 0.00386849 0.00158972 0.00148332 -0.00106459 0.00158972 -0.0010324 -0.00473477 -0.00387138 -0.00476606 -0.00383978 -0.00387138 -0.00165714 -0.00383978 -0.00153526 -0.00476606 -0.00383978 -0.00485069 -0.00380741 -0.00383978 -0.00153526 -0.00380741 -0.00141339 -0.0010997 -0.00316044 -0.00110467 -0.00319431 0.0038658 0.00158047 0.00356498 0.00147121 0.00158047 -0.00110467 0.00147121 -0.00110497 0.00147121 -0.00110497 0.00132993 -0.0011587 -0.00183871 -0.00421539 -0.00173154 -0.00423789 -0.00421539 -0.00482396 -0.00423789 -0.00492276 -0.00173154 -0.00423789 -0.0016243 -0.00428965 0.00321361 0.00132993 0.0028396 0.00113788 0.00132993 -0.0011587 0.00113788 -0.00124059 0.00113788 -0.00124059 0.000905503 -0.00134722 -0.00121736 -0.00306204 -0.00116471 -0.00307116 -0.00162474 -0.00428961 -0.00173208 -0.00423793 -0.00173208 -0.00423793 -0.00183935 -0.0042155 -0.00423793 -0.00492239 -0.0042155 -0.00482363 -0.00310277 -0.00366993 -0.00311946 -0.00371361 -0.00311946 -0.00371361 -0.00314281 -0.00380003 -0.00310961 -0.00377866 -0.00309436 -0.00368332 -0.00107423 -0.000879446 -0.000837202 -0.000642877 -0.000879446 -0.000555049 -0.000642877 -0.000362035 0.00395458 0.00688011 0.0041686 0.00704104 0.00688011 0.00926028 0.00704104 0.0093328 0.0041686 0.00704104 0.00438262 0.00715505 0.00704104 0.0093328 0.00715505 0.0093421 0.00926028 0.0108439 0.0093328 0.0108294 0.0108439 0.0113611 0.0108294 0.0113614 0.0093328 0.0108294 0.0093421 0.0107046 0.00438262 0.00715505 0.00454313 0.00720649 0.00454313 0.00720649 0.00470365 0.00719339 -0.00485069 -0.00380741 -0.00489432 -0.00379815 -0.00380741 -0.00141339 -0.00379815 -0.00129888 -0.00489432 -0.00379815 -0.00494847 -0.00380754 -0.00379815 -0.00129888 -0.00380754 -0.00120496 -0.00141339 0.00164513 -0.00129888 0.00180208 0.00164513 0.00470365 0.00180208 0.00474663 -0.00129888 0.00180208 -0.00120496 0.00192279 0.00180208 0.00474663 0.00192279 0.00476549 -0.00380754 -0.00120496 -0.00383583 -0.00112917 -0.00501148 -0.00383583 -0.00504118 -0.00387266 -0.00130363 -0.00400952 -0.00136688 -0.00404747 -0.00400952 -0.00509597 -0.00404747 -0.0050687 -0.00136688 -0.00404747 -0.00146957 -0.00403665 -0.00120496 0.00192279 -0.00112917 0.00199694 0.00192279 0.00476549 0.00199694 0.00472764 -0.00112917 0.00199694 -0.00108084 0.00202808 -0.00146992 -0.00403548 -0.00137843 -0.00399813 -0.00137843 -0.00399813 -0.00130216 -0.00401808 -0.00415648 -0.00137792 -0.00403992 -0.00127709 -0.00403992 -0.00127709 -0.00398364 -0.00117414 -0.00398426 -0.00117421 -0.00404043 -0.0012768 -0.00404043 -0.0012768 -0.00415686 -0.0013774 0.00920162 0.00946915 0.00856179 0.00879163 0.00856179 0.00879163 0.00786856 0.00803946 0.00904609 0.0101809 0.00876144 0.00974054 0.0101809 0.0105627 0.00974054 0.0100653 0.00876144 0.00974054 0.00838455 0.00920162 0.00974054 0.0100653 0.00920162 0.00946915 -0.0010678 0.00202519 -0.00112141 0.00199726 -0.00112141 0.00199726 -0.00119528 0.00192254 0.00199726 0.00471815 0.00192254 0.0047566 -0.00494531 -0.00379565 -0.00489194 -0.00379171 -0.00379565 -0.00119528 -0.00379171 -0.00129282 -0.00489194 -0.00379171 -0.00484886 -0.00380455 -0.00379171 -0.00129282 -0.00380455 -0.00141084 -0.00119528 0.00192254 -0.00129282 0.00180119 0.00192254 0.0047566 0.00180119 0.00473892 -0.00129282 0.00180119 -0.00141084 0.00164334 0.00180119 0.00473892 0.00164334 0.00469751 -0.00503731 -0.00387726 -0.00500759 -0.00382191 -0.00387726 -0.0010678 -0.00382191 -0.00112141 -0.00382191 -0.00112141 -0.00379565 -0.00119528 0.00617248 0.00808672 0.00608435 0.0076901 0.00915063 0.00946268 0.00971783 0.0100599 0.00873291 0.00971783 0.00902454 0.0101609 0.00971783 0.0100599 0.0101609 0.0105587 0.010236 0.0103391 0.00945546 0.0094987 0.00910529 0.00945546 0.00837125 0.00860203 0.00945546 0.0094987 0.00860203 0.00863332 0.00374674 0.00778871 0.