# vtk DataFile Version 3.0
#This file was generated by the deal.II library on 2023/3/1 at 3:09:52
ASCII
DATASET UNSTRUCTURED_GRID

FIELD FieldData 2
CYCLE 1 1 int
87
TIME 1 1 double
0.174
POINTS 11152 double
1.85072 0.92388 -1.85072
2.41809 0.92388 -1.0016
2.12132 1 -2.12132
2.77164 1 -1.14805
2.62132 -0.707107 -2.62132
3.42492 -0.707107 -1.41865
2.39192 -0.92388 -2.39192
3.12519 -0.92388 -1.2945
2.39192 -0.92388 -2.39192
3.12519 -0.92388 -1.2945
2.12132 -1 -2.12132
2.77164 -1 -1.14805
2.11836 -0.707107 -0.877452
2.29289 -0.707107 0
1.91809 -0.382683 -0.794497
2.07612 -0.382683 0
1.91809 -0.382683 -0.794497
2.07612 -0.382683 0
1.84776 1.22465e-16 -0.765367
2 0 0
-2.7746 -0.382683 2.7746
-3.62519 -0.382683 1.5016
-2.62132 -0.707107 2.62132
-3.42492 -0.707107 1.41865
1.14805 -1 -2.77164
2.12132 -1 -2.12132
1.0016 -0.92388 -2.41809
1.85072 -0.92388 -1.85072
1.0016 -0.92388 -2.41809
1.85072 -0.92388 -1.85072
0.877452 -0.707107 -2.11836
1.62132 -0.707107 -1.62132
1.2945 -0.92388 -3.12519
2.39192 -0.92388 -2.39192
1.14805 -1 -2.77164
2.12132 -1 -2.12132
-1.67892 0.19509 1.12182
-1.86551 0.19509 0.77272
-1.72623 0.382683 1.15343
-1.91809 0.382683 0.794497
-1.84776 1.22465e-16 0.765367
-1.96157 1.22465e-16 0.390181
-1.86551 0.19509 0.77272
-1.98042 0.19509 0.393929
-1.96157 1.22465e-16 0.390181
-2 0 0
-1.98042 0.19509 0.393929
-2.01921 0.19509 2.47282e-16
-1.86551 0.19509 0.77272
-1.98042 0.19509 0.393929
-1.91809 0.382683 0.794497
-2.03623 0.382683 0.405031
-1.98042 0.19509 0.393929
-2.01921 0.19509 2.47282e-16
-2.03623 0.382683 0.405031
-2.07612 0.382683 2.54251e-16
2.94236 -1 0.585271
2.77164 -1 1.14805
2.75101 -0.980785 0.547211
2.5914 -0.980785 1.07339
2.39746 -0.83147 0.476885
2.25836 -0.83147 0.935443
2.24884 -0.707107 0.447321
2.11836 -0.707107 0.877452
-2.03623 0.382683 0.405031
-2.07612 0.382683 2.54251e-16
-2.12686 0.55557 0.423059
-2.16853 0.55557 2.65568e-16
-2.00346 0.55557 0.829861
-2.12686 0.55557 0.423059
-2.11836 0.707107 0.877452
-2.24884 0.707107 0.447321
-1.46804 0.382683 1.46804
-1.72623 0.382683 1.15343
-1.53338 0.55557 1.53338
-1.80307 0.55557 1.20477
-1.72623 0.382683 1.15343
-1.91809 0.382683 0.794497
-1.80307 0.55557 1.20477
-2.00346 0.55557 0.829861
-1.53338 0.55557 1.53338
-1.80307 0.55557 1.20477
-1.62132 0.707107 1.62132
-1.90647 0.707107 1.27386
-1.80307 0.55557 1.20477
-2.00346 0.55557 0.829861
-1.90647 0.707107 1.27386
-2.11836 0.707107 0.877452
2.29289 0.707107 0
2.24884 0.707107 0.447321
2.44443 0.83147 0
2.39746 0.83147 0.476885
2.24884 0.707107 0.447321
2.11836 0.707107 0.877452
2.39746 0.83147 0.476885
2.25836 0.83147 0.935443
2.44443 0.83147 0
2.39746 0.83147 0.476885
2.61732 0.92388 0
2.56703 0.92388 0.510613
2.39746 0.83147 0.476885
2.25836 0.83147 0.935443
2.56703 0.92388 0.510613
2.41809 0.92388 1.0016
2.11836 0.707107 0.877452
1.90647 0.707107 1.27386
2.25836 0.83147 0.935443
2.03247 0.83147 1.35805
2.25836 0.83147 0.935443
2.03247 0.83147 1.35805
2.41809 0.92388 1.0016
2.17622 0.92388 1.4541
2.03247 0.83147 1.35805
1.72847 0.83147 1.72847
2.17622 0.92388 1.4541
1.85072 0.92388 1.85072
-1.85072 -0.92388 1.85072
-2.17622 -0.92388 1.4541
-1.72847 -0.83147 1.72847
-2.03247 -0.83147 1.35805
-2.17622 -0.92388 1.4541
-2.41809 -0.92388 1.0016
-2.03247 -0.83147 1.35805
-2.25836 -0.83147 0.935443
-1.72847 -0.83147 1.72847
-2.03247 -0.83147 1.35805
-1.62132 -0.707107 1.62132
-1.90647 -0.707107 1.27386
-2.03247 -0.83147 1.35805
-2.25836 -0.83147 0.935443
-1.90647 -0.707107 1.27386
-2.11836 -0.707107 0.877452
-1.62132 -0.707107 1.62132
-1.90647 -0.707107 1.27386
-1.53338 -0.55557 1.53338
-1.80307 -0.55557 1.20477
-1.90647 -0.707107 1.27386
-2.11836 -0.707107 0.877452
-1.80307 -0.55557 1.20477
-2.00346 -0.55557 0.829861
-1.53338 -0.55557 1.53338
-1.80307 -0.55557 1.20477
-1.46804 -0.382683 1.46804
-1.72623 -0.382683 1.15343
-1.80307 -0.55557 1.20477
-2.00346 -0.55557 0.829861
-1.72623 -0.382683 1.15343
-1.91809 -0.382683 0.794497
2.41809 -0.92388 1.0016
2.17622 -0.92388 1.4541
2.25836 -0.83147 0.935443
2.03247 -0.83147 1.35805
2.25836 -0.83147 0.935443
2.03247 -0.83147 1.35805
2.11836 -0.707107 0.877452
1.90647 -0.707107 1.27386
1.84776 1.22465e-16 0.765367
1.66294 1.22465e-16 1.11114
1.86551 0.19509 0.77272
1.67892 0.19509 1.12182
1.66294 1.22465e-16 1.11114
1.41421 1.22465e-16 1.41421
1.67892 0.19509 1.12182
1.4278 0.19509 1.4278
1.86551 0.19509 0.77272
1.67892 0.19509 1.12182
1.91809 0.382683 0.794497
1.72623 0.382683 1.15343
-2.41809 -0.92388 1.0016
-2.56703 -0.92388 0.510613
-2.25836 -0.83147 0.935443
-2.39746 -0.83147 0.476885
-2.25836 -0.83147 0.935443
-2.39746 -0.83147 0.476885
-2.11836 -0.707107 0.877452
-2.24884 -0.707107 0.447321
-2.17622 0.92388 1.4541
-2.41809 0.92388 1.0016
-2.3322 0.980785 1.55832
-2.5914 0.980785 1.07339
-2.3322 0.980785 1.55832
-2.5914 0.980785 1.07339
-2.49441 1 1.66671
-2.77164 1 1.14805
-2.49441 -1 1.66671
-2.77164 -1 1.14805
-2.3322 -0.980785 1.55832
-2.5914 -0.980785 1.07339
-2.3322 -0.980785 1.55832
-2.5914 -0.980785 1.07339
-2.17622 -0.92388 1.4541
-2.41809 -0.92388 1.0016
-1.90647 0.707107 1.27386
-2.11836 0.707107 0.877452
-2.03247 0.83147 1.35805
-2.25836 0.83147 0.935443
-1.72847 0.83147 1.72847
-2.03247 0.83147 1.35805
-1.85072 0.92388 1.85072
-2.17622 0.92388 1.4541
-2.03247 0.83147 1.35805
-2.25836 0.83147 0.935443
-2.17622 0.92388 1.4541
-2.41809 0.92388 1.0016
2.77164 -1 1.14805
2.49441 -1 1.66671
2.5914 -0.980785 1.07339
2.3322 -0.980785 1.55832
2.5914 -0.980785 1.07339
2.3322 -0.980785 1.55832
2.41809 -0.92388 1.0016
2.17622 -0.92388 1.4541
-2.11836 0.707107 0.877452
-2.24884 0.707107 0.447321
-2.25836 0.83147 0.935443
-2.39746 0.83147 0.476885
-2.24884 0.707107 0.447321
-2.29289 0.707107 2.80798e-16
-2.39746 0.83147 0.476885
-2.44443 0.83147 2.99356e-16
-2.25836 0.83147 0.935443
-2.39746 0.83147 0.476885
-2.41809 0.92388 1.0016
-2.56703 0.92388 0.510613
2.56703 0.92388 0.510613
2.41809 0.92388 1.0016
2.75101 0.980785 0.547211
2.5914 0.980785 1.07339
2.80491 0.980785 0
2.75101 0.980785 0.547211
3 1 0
2.94236 1 0.585271
-2.62132 -0.707107 2.62132
-3.08235 -0.707107 2.05956
-2.51417 -0.83147 2.51417
-2.95635 -0.83147 1.97537
-3.08235 -0.707107 2.05956
-3.42492 -0.707107 1.41865
-2.95635 -0.83147 1.97537
-3.28492 -0.83147 1.36066
-2.51417 -0.83147 2.51417
-2.95635 -0.83147 1.97537
-2.39192 -0.92388 2.39192
-2.8126 -0.92388 1.87932
-2.95635 -0.83147 1.97537
-3.28492 -0.83147 1.36066
-2.8126 -0.92388 1.87932
-3.12519 -0.92388 1.2945
0 -1 3
-0.585271 -1 2.94236
1.71751e-16 -0.980785 2.80491
-0.547211 -0.980785 2.75101
1.71751e-16 -0.980785 2.80491
-0.547211 -0.980785 2.75101
1.60264e-16 -0.92388 2.61732
-0.510613 -0.92388 2.56703
-0.547211 -0.980785 2.75101
-1.07339 -0.980785 2.5914
-0.510613 -0.92388 2.56703
-1.0016 -0.92388 2.41809
-2.75101 -0.980785 0.547211
-2.80491 -0.980785 3.43502e-16
-2.56703 -0.92388 0.510613
-2.61732 -0.92388 3.20529e-16
2.07612 0.382683 0
2.03623 0.382683 0.405031
2.16853 0.55557 0
2.12686 0.55557 0.423059
2.03623 0.382683 0.405031
1.91809 0.382683 0.794497
2.12686 0.55557 0.423059
2.00346 0.55557 0.829861
2.16853 0.55557 0
2.12686 0.55557 0.423059
2.29289 0.707107 0
2.24884 0.707107 0.447321
2.12686 0.55557 0.423059
2.00346 0.55557 0.829861
2.24884 0.707107 0.447321
2.11836 0.707107 0.877452
2 0 0
1.96157 1.22465e-16 0.390181
2.01921 0.19509 0
1.98042 0.19509 0.393929
1.98337 0.980785 1.98337
1.55832 0.980785 2.3322
2.12132 1 2.12132
1.66671 1 2.49441
1.91809 0.382683 0.794497
1.72623 0.382683 1.15343
2.00346 0.55557 0.829861
1.80307 0.55557 1.20477
2.00346 0.55557 0.829861
1.80307 0.55557 1.20477
2.11836 0.707107 0.877452
1.90647 0.707107 1.27386
2.29289 -0.707107 0
2.24884 -0.707107 0.447321
2.16853 -0.55557 0
2.12686 -0.55557 0.423059
2.24884 -0.707107 0.447321
2.11836 -0.707107 0.877452
2.12686 -0.55557 0.423059
2.00346 -0.55557 0.829861
2.16853 -0.55557 0
2.12686 -0.55557 0.423059
2.07612 -0.382683 0
2.03623 -0.382683 0.405031
2.12686 -0.55557 0.423059
2.00346 -0.55557 0.829861
2.03623 -0.382683 0.405031
1.91809 -0.382683 0.794497
3 1 0
2.94236 1 0.585271
3.19509 0.980785 0
3.1337 0.980785 0.623331
3.1337 0.980785 0.623331
2.95188 0.980785 1.22271
3.31769 0.92388 0.659929
3.12519 0.92388 1.2945
1.62132 0.707107 -1.62132
1.90647 0.707107 -1.27386
1.72847 0.83147 -1.72847
2.03247 0.83147 -1.35805
1.90647 0.707107 -1.27386
2.11836 0.707107 -0.877452
2.03247 0.83147 -1.35805
2.25836 0.83147 -0.935443
1.72847 0.83147 -1.72847
2.03247 0.83147 -1.35805
1.85072 0.92388 -1.85072
2.17622 0.92388 -1.4541
2.03247 0.83147 -1.35805
2.25836 0.83147 -0.935443
2.17622 0.92388 -1.4541
2.41809 0.92388 -1.0016
-2.24884 -0.707107 0.447321
-2.29289 -0.707107 2.80798e-16
-2.12686 -0.55557 0.423059
-2.16853 -0.55557 2.65568e-16
-2.00346 -0.55557 0.829861
-2.12686 -0.55557 0.423059
-1.91809 -0.382683 0.794497
-2.03623 -0.382683 0.405031
-2.12686 -0.55557 0.423059
-2.16853 -0.55557 2.65568e-16
-2.03623 -0.382683 0.405031
-2.07612 -0.382683 2.54251e-16
-1.14805 -1 -2.77164
-0.585271 -1 -2.94236
-1.07339 -0.980785 -2.5914
-0.547211 -0.980785 -2.75101
-0.585271 -1 -2.94236
0 -1 -3
-0.547211 -0.980785 -2.75101
-5.15254e-16 -0.980785 -2.80491
-1.07339 -0.980785 -2.5914
-0.547211 -0.980785 -2.75101
-1.0016 -0.92388 -2.41809
-0.510613 -0.92388 -2.56703
-0.547211 -0.980785 -2.75101
-5.15254e-16 -0.980785 -2.80491
-0.510613 -0.92388 -2.56703
-4.80793e-16 -0.92388 -2.61732
2.07612 -0.382683 0
2.03623 -0.382683 0.405031
2.01921 -0.19509 0
1.98042 -0.19509 0.393929
2.03623 -0.382683 0.405031
1.91809 -0.382683 0.794497
1.98042 -0.19509 0.393929
1.86551 -0.19509 0.77272
2.01921 -0.19509 0
1.98042 -0.19509 0.393929
2 0 0
1.96157 1.22465e-16 0.390181
1.98042 -0.19509 0.393929
1.86551 -0.19509 0.77272
1.96157 1.22465e-16 0.390181
1.84776 1.22465e-16 0.765367
-1.0016 -0.92388 -2.41809
-0.510613 -0.92388 -2.56703
-0.935443 -0.83147 -2.25836
-0.476885 -0.83147 -2.39746
-0.510613 -0.92388 -2.56703
-4.80793e-16 -0.92388 -2.61732
-0.476885 -0.83147 -2.39746
-4.49034e-16 -0.83147 -2.44443
-0.935443 -0.83147 -2.25836
-0.476885 -0.83147 -2.39746
[...]
POINT_DATA 11152
SCALARS U double 1
LOOKUP_TABLE default
0.00249364 0.0037027 0.00220217 0.00300165 0.00233553 0.00166296 0.00244062 0.00207765 0.00244062 0.00207765 0.00251901 0.00252129 0.00384579 0.00503882 0.00395467 0.00546353 0.00395467 0.00546353 0.0041467 0.00577682 0.00201757 0.00138558 0.00197392 0.00168899 0.00324117 0.00251901 0.00372492 0.00256807 0.00372492 0.00256807 0.00419441 0.00271955 0.00293576 0.00244062 0.00324117 0.00251901 0.00311023 0.00385523 0.0032391 0.00411599 0.00363605 0.00475456 0.00385523 0.00496525 0.00475456 0.00593985 0.00496525 0.00577332 0.00385523 0.00496525 0.00411599 0.00508847 0.00496525 0.00577332 0.00508847 0.00555713 0.00461147 0.00441507 0.00475773 0.00469585 0.0053254 0.00523423 0.00570603 0.00575832 0.00508847 0.00555713 0.00503312 0.00528767 0.00423478 0.00503312 0.00415656 0.00482972 0.00306075 0.0032391 0.00304911 0.00334277 0.0032391 0.00411599 0.00334277 0.00423478 0.00304911 0.00334277 0.00289783 0.00326909 0.00334277 0.00423478 0.00326909 0.00415656 0.00496684 0.00590083 0.00453044 0.00561575 0.00590083 0.00531882 0.00561575 0.00535562 0.00453044 0.00561575 0.00411093 0.00521022 0.00561575 0.00535562 0.00521022 0.00557036 0.00531882 0.0056409 0.00535562 0.00551857 0.00535562 0.00551857 0.00557036 0.0055112 0.00551857 0.00527599 0.0055112 0.00498019 0.00229629 0.00265007 0.00270361 0.00312629 0.00265007 0.00346256 0.00312629 0.00385648 0.00270361 0.00312629 0.00304437 0.0034528 0.00312629 0.00385648 0.0034528 0.00412925 0.00304437 0.0034528 0.0031914 0.00350727 0.0034528 0.00412925 0.00350727 0.00411624 0.0031914 0.00350727 0.00316589 0.00332452 0.00350727 0.00411624 0.00332452 0.0038596 0.00486787 0.00477005 0.00523423 0.00492161 0.00523423 0.00492161 0.00575832 0.00526023 0.00575662 0.00570662 0.00538911 0.00564108 0.00570662 0.00525083 0.00564108 0.00548435 0.00538911 0.00564108 0.00531117 0.00569273 0.00346256 0.00406166 0.00385648 0.00437373 0.00385648 0.00437373 0.00412925 0.00462896 0.00271223 0.00359301 0.00240195 0.00327017 0.00240195 0.00327017 0.0021725 0.00300917 0.00189476 0.00276124 0.00219979 0.00306637 0.00219979 0.00306637 0.00265007 0.00346256 0.00326909 0.00415656 0.00303824 0.0039047 0.0026564 0.00303824 0.00237586 0.00271223 0.00303824 0.0039047 0.00271223 0.00359301 0.00441507 0.00433373 0.00469585 0.00463728 0.00469585 0.00463728 0.00486787 0.00477005 0.00415656 0.00482972 0.0039047 0.0045844 0.00482972 0.00488568 0.0045844 0.00429414 0.0039047 0.0045844 0.00359301 0.00441212 0.00521022 0.00557036 0.00483417 0.00575615 0.00384025 0.00483417 0.00362783 0.00455147 0.00197392 0.00183146 0.00187645 0.00196709 0.00183146 0.00168899 0.00196709 0.00193244 0.00187645 0.00196709 0.00173907 0.00188166 0.00196709 0.00193244 0.00188166 0.00222238 0.00442754 0.0029176 0.00467261 0.00328817 0.00467261 0.00328817 0.00457211 0.00377823 0.00328817 0.00354699 0.00377823 0.00373594 0.00378931 0.00346117 0.00406166 0.00370902 0.00562916 0.00598159 0.00533879 0.00601016 0.00598159 0.00531117 0.00601016 0.00534801 0.00533879 0.00601016 0.00496684 0.00590083 0.00601016 0.00534801 0.00590083 0.00531882 0.00577682 0.00601408 0.00577974 0.00594223 0.0049844 0.00514478 0.00491777 0.00507557 0.00531117 0.00569273 0.00534801 0.00572492 0.00534801 0.00572492 0.00531882 0.0056409 0.00503882 0.00570603 0.00525117 0.00600685 0.00570603 0.00575832 0.00600685 0.00621179 0.00525117 0.00600685 0.00546353 0.00612615 0.00600685 0.00621179 0.00612615 0.00636951 0.00362783 0.00455147 0.00333266 0.00435012 0.00435012 0.00460321 0.00401878 0.00364878 0.00304593 0.0034496 0.00277872 0.00323044 0.0034496 0.00428422 0.00323044 0.00404395 0.00277872 0.00323044 0.00249364 0.00309817 0.00323044 0.00404395 0.00309817 0.0037027 0.00462896 0.00472121 0.00473308 0.00527207 0.00411624 0.00473308 0.0038596 0.00467853 0.00473308 0.00527207 0.00467853 0.00568255 0.00451606 0.00455132 0.00464777 0.00547006 0.00455132 0.00391098 0.00547006 0.00458883 0.00464777 0.00547006 0.00516617 0.00595745 0.00547006 0.00458883 0.00595745 0.00477764 0.00546353 0.00612615 0.00562017 0.00612387 0.00612615 0.00636951 0.00612387 0.00618063 0.00562017 0.00612387 0.00577682 0.00601408 0.00612387 0.00618063 0.00601408 0.00575662 0.00516617 0.00595745 0.00621102 0.00622832 0.00595745 0.00477764 0.00622832 0.00502687 0.00621102 0.00622832 0.00658524 0.00650578 0.00622832 0.00502687 0.00650578 0.00523307 0.00220217 0.00260191 0.002128 0.00239439 0.00260191 0.00300165 0.00239439 0.00270114 0.002128 0.00239439 0.00203909 0.00219801 0.00239439 0.00270114 0.00219801 0.00242021 0.00256056 0.00179228 0.00248717 0.0019164 0.00248717 0.0019164 0.00251615 0.00201757 0.00294097 0.00251615 0.00310865 0.00259467 0.00251615 0.00201757 0.00259467 0.00199575 0.00310865 0.00259467 0.00324923 0.00264507 0.00259467 0.00199575 0.00264507 0.00197392 0.0041467 0.00496176 0.00430698 0.005151 0.00496176 0.00577682 0.005151 0.00577974 0.00430698 0.005151 0.00441053 0.00514204 0.005151 0.00577974 0.00514204 0.00562916 0.00168899 0.00173293 0.00193244 0.0021604 0.00173293 0.00211759 0.0021604 0.00241494 0.00193244 0.0021604 0.00222238 0.00275332 0.0021604 0.00241494 0.00275332 0.0027187 0.00159633 0.00167794 0.00167112 0.00168497 0.00167112 0.00168497 0.00178033 0.00188193 0.00593985 0.00616301 0.00577332 0.00609163 0.00616301 0.00523939 0.00609163 0.00525667 0.00577332 0.00609163 0.00555713 0.00582865 0.00609163 0.00525667 0.00582865 0.00513543 0.00328236 0.00339694 0.00340657 0.00360457 0.00339694 0.0041467 0.00360457 0.00430698 0.00360457 0.00430698 0.00369513 0.00441053 0.00325508 0.00300678 0.00356963 0.00325768 0.00523939 0.00554646 0.00525667 0.00553328 0.00525667 0.00553328 0.00513543 0.00547873 0.00369513 0.00441053 0.0036138 0.00440939 0.00325693 0.0036138 0.00304593 0.0034496 0.0036138 0.00440939 0.0034496 0.00428422 0.00384053 0.00303993 0.00378738 0.00306075 0.0037027 0.00424227 0.00335217 0.00380227 0.00424227 0.00411093 0.00380227 0.00384025 0.00335217 0.00380227 0.00300165 0.0033965 0.00380227 0.00384025 0.0033965 0.00362783 0.00332452 0.0038596 0.00313032 0.00362218 0.00296714 0.00305931 0.00367845 0.00358748 0.00292079 0.00367845 0.00329448 0.00421806 0.00472121 0.00563637 0.00527207 0.00590188 0.00563637 0.00551537 0.00590188 0.00580115 0.00527207 0.00590188 0.00568255 0.0059967 0.00590188 0.00580115 0.0059967 0.00563116 0.00472399 0.00378738 0.00443784 0.0037014 0.00378738 0.00306075 0.0037014 0.00304911 0.00443784 0.0037014 0.00421013 0.00353007 0.0037014 0.00304911 0.00353007 0.00289783 0.00187227 0.00168232 0.00158457 0.00146427 0.00158457 0.00146427 0.00131016 0.00146174 0.00393139 0.00402692 0.0038051 0.00398213 0.00188166 0.00222238 0.00180679 0.00249116 0.00180679 0.00249116 0.00189476 0.00276124 0.00421013 0.00353007 0.00395009 0.00333358 0.00353007 0.00289783 0.00333358 0.0026564 0.00395009 0.00333358 0.00370133 0.00314772 0.00333358 0.0026564 0.00314772 0.00237586 0.00146174 0.00160022 0.00150497 0.00154305 0.00150497 0.00154305 0.0014803 0.00159633 0.00299692 0.00250079 0.00338424 0.00299398 0.00338424 0.00299398 0.00361626 0.00327985 0.00166296 0.00188544 0.00187031 0.00207275 0.00187031 0.00207275 0.00207765 0.0021483 0.00219801 0.00242021 0.00209658 0.00208163 0.00242021 0.00276107 0.00208163 0.00250564 0.00276107 0.00298553 0.00250564 0.00261614 0.00208163 0.00250564 0.00172331 0.00224093 0.00250564 0.00261614 0.00224093 0.00226909 0.00127173 0.00221132 0.0013706 0.00233183 0.0013706 0.00233183 0.00164104 0.00272078 0.00342698 0.00250746 0.00323568 0.00249737 0.00323568 0.00249737 0.00314487 0.00247488 0.00370133 0.00314772 0.00350052 0.00299244 0.00314772 0.00237586 0.00299244 0.00212626 0.00350052 0.00299244 0.00333094 0.00288218 0.00299244 0.00212626 0.00288218 0.00196585 0.00563116 0.00566541 0.00532233 0.00557028 0.00566541 0.00529249 0.00557028 0.00545597 0.00532233 0.00557028 0.00523939 0.00554646 0.00488568 0.00544939 0.00429414 0.00531039 0.00544939 0.0049254 0.00531039 0.00504562 0.00429414 0.00531039 0.00367133 0.00500484 0.00531039 0.00504562 0.00500484 0.00522734 0.0049254 0.0052982 0.00504562 0.00519598 0.00504562 0.00519598 0.00522734 0.00516561 0.00519598 0.00491922 0.00516561 0.00472349 0.00226909 0.00283964 0.00195463 0.00268654 0.00397139 0.00451604 0.00339885 0.00362641 0.00260826 0.00339885 0.00244363 0.00295396 0.00140627 0.00243104 0.00128049 0.00216793 0.00441366 0.00361628 0.0042073 0.00334442 0.00361628 0.00379761 0.00334442 0.00347655 0.00334442 0.00347655 0.00321599 0.00326529 0.00441053 0.00514204 0.00440939 0.00504145 0.00514204 0.00562916 0.00504145 0.00533879 0.00440939 0.00504145 0.00428422 0.00488878 0.00577411 0.00492776 0.0055469 0.00505778 0.00492776 0.0040136 0.00505778 0.00399927 0.0055469 0.00505778 0.00515721 0.00510631 0.00505778 0.00399927 0.00510631 0.00472361 0.00304966 0.00395467 0.00318952 0.00405069 0.00318952 0.00405069 0.00339694 0.0041467 0.0040136 0.00389384 0.00399927 0.00539231 0.00389384 0.00442754 0.00539231 0.00467261 0.00399927 0.00539231 0.00472361 0.0057692 0.00539231 0.00467261 0.0057692 0.00457211 0.00295396 0.0028345 0.00259483 0.00230248 0.00224852 0.00259483 0.00203565 0.00229212 0.00568255 0.0059967 0.00591427 0.00607239 0.00324923 0.00264507 0.00329354 0.00265743 0.00264507 0.00197392 0.00265743 0.00187645 0.00329354 0.00265743 0.00327787 0.00265892 0.00265743 0.00187645 0.00265892 0.00173907 0.00178203 0.00217368 0.00160022 0.00205693 0.00217368 0.00147455 0.00205693 0.001278 0.00491777 0.00507557 0.00451181 0.00473968 0.00387604 0.00362511 0.00428215 0.00403055 0.00428215 0.00403055 0.00476752 0.00443902 0.00224093 0.00226909 0.00192125 0.00195463 0.00192125 0.00195463 0.00154135 0.00164364 0.00376412 0.00392717 0.00381948 0.00380308 0.00381948 0.00380308 0.00378708 0.00375114 0.00378708 0.00375114 0.00369816 0.0037032 0.00367133 0.00500484 0.00317141 0.00454987 0.00500484 0.00522734 0.00454987 0.00512396 0.00317141 0.00454987 0.00282659 0.00397139 0.00454987 0.00512396 0.00397139 0.00451604 0.00335191 0.00245075 0.00334889 0.00238738 0.00238738 0.00311257 0.00241482 0.00296394 0.00317284 0.00241482 0.00316751 0.00244855 0.00244855 0.0028443 0.0025069 0.0028032 0.0032621 0.0025069 0.00329854 0.00263915 0.0025069 0.0028032 0.00263915 0.00285045 0.00329854 0.00263915 0.00341574 0.00281284 0.00263915 0.00285045 0.00281284 0.00293576 0.00281284 0.00293576 0.00309878 0.00308846 0.00309878 0.00308846 0.00353884 0.00324117 0.00321599 0.00326529 0.0028897 0.00323484 0.00347963 0.0028897 0.00339931 0.00278058 0.00339931 0.00278058 0.00333833 0.0027171 0.00333833 0.0027171 0.00345952 0.00262207 0.00300165 0.0033965 0.00270114 0.0030576 0.0033965 0.00362783 0.0030576 0.00333266 0.00270114 0.0030576 0.00242021 0.00276107 0.0030576 0.00333266 0.00276107 0.00298553 0.0021725 0.00300917 0.00206907 0.00277171 0.00195223 0.00206907 0.00205668 0.00210123 0.00206907 0.00277171 0.00210123 0.00245987 0.00462725 0.0038525 0.00470814 0.00390236 0.0038525 0.00316589 0.00390236 0.00308731 0.00470814 0.00390236 0.00484921 0.00388921 0.00513543 0.00547873 0.00497302 0.00540808 0.00497302 0.00540808 0.0049254 0.0052982 0.00334645 0.00272066 0.00354699 0.00279312 0.00272066 0.00169928 0.00279312 0.00193721 0.00354699 0.00279312 0.00373594 0.00294458 0.00279312 0.00193721 0.00294458 0.00229629 0.00472873 0.00443784 0.00447128 0.00421013 0.00447128 0.00421013 0.00414851 0.00395009 0.00414851 0.00395009 0.00376872 0.00370133 0.00434818 0.00457415 0.00460016 0.00475895 0.00460016 0.00475895 0.00480746 0.00486114 0.00376872 0.00370133 0.00337956 0.00350052 0.00337956 0.00350052 0.00313369 0.00333094 0.00348202 0.00373223 0.00316506 0.00353772 0.00230248 0.00316506 0.00186451 0.00293573 0.00316506 0.00353772 0.00293573 0.00328111 0.00370902 0.00476752 0.00417152 0.00523684 0.00476752 0.00443902 0.00523684 0.00496371 0.00417152 0.00523684 0.00472121 0.00563637 0.00523684 0.00496371 0.00563637 0.00551537 0.00315685 0.0027655 0.00320799 0.00277128 0.0027655 0.00205668 0.00277128 0.00216766 0.00320799 0.00277128 0.0033223 0.00279643 0.00277128 0.00216766 0.00279643 0.00216604 0.00377823 0.00373594 0.0042145 0.00398343 0.0042145 0.00398343 0.00457113 0.0042534 0.00394452 0.00313369 0.00392669 0.00298407 0.00392669 0.00298407 0.00400325 0.00285304 0.00233963 0.00369816 0.00295126 0.00365965 0.00295126 0.00365965 0.0034929 0.00375083 0.00443902 0.00480746 0.00496371 0.00505222 0.00496371 0.00505222 0.00551537 0.00537972 0.00505222 0.00481344 0.00537972 0.00491198 0.00373594 0.00294458 0.00398343 0.00318352 0.00294458 0.00229629 0.00318352 0.00270361 0.00398343 0.00318352 0.0042534 0.00347218 0.00318352 0.00270361 0.00347218 0.00304437 0.0038596 0.00467853 0.00362218 0.00464534 0.00467853 0.00568255 0.00464534 0.00591427 0.00362218 0.00464534 0.00363605 0.00475456 0.00464534 0.00591427 0.00475456 0.00593985 0.00410275 0.00440434 0.00434818 0.00457415 0.00207765 0.0021483 0.00229947 0.00238716 0.0021483 0.00219995 0.00238716 0.00255846 0.00229947 0.00238716 0.00252129 0.00296714 0.00238716 0.00255846 0.00296714 0.00305931 0.00451604 0.00444538 0.00362641 0.00387691 0.00444538 0.00447108 0.00387691 0.00401467 0.00362641 0.00387691 0.0028345 0.00348202 0.00387691 0.00401467 0.00348202 0.00373223 0.00457415 0.00434074 0.00475895 0.00450683 0.00457113 0.0042534 0.00481732 0.00448119 0.00481732 0.00448119 0.00493321 0.00462725 0.0042534 0.00347218 0.00448119 0.00370327 0.00347218 0.00304437 0.00370327 0.0031914 0.00448119 0.00370327 0.00462725 0.0038525 0.00370327 0.0031914 0.0038525 0.00316589 0.00404672 0.00450563 0.00402692 0.00451853 0.00327787 0.00265892 0.00329722 0.00267013 0.00265892 0.00173907 0.00267013 0.00165008 0.00329722 0.00267013 0.00334645 0.00272066 0.00267013 0.00165008 0.00272066 0.00169928 0.00493321 0.00462725 0.00499942 0.00470814 0.00428422 0.00488878 0.00404395 0.00462584 0.00656873 0.00656322 0.00628995 0.0062932 0.00656322 0.00504461 0.0062932 0.0047468 0.00628995 0.0062932 0.00533476 0.0060289 0.0062932 0.0047468 0.0060289 0.00441366 0.00251901 0.00252015 0.00254354 0.00245035 0.00252015 0.00252129 0.00245035 0.00292079 0.00254354 0.00245035 0.00256807 0.0025631 0.00245035 0.00292079 0.0025631 0.00329448 0.00256807 0.0025631 0.00264381 0.00274489 0.0025631 0.00329448 0.00274489 0.0036056 0.00264381 0.00274489 0.00271955 0.00291377 0.00274489 0.0036056 0.00291377 0.00384579 0.00329448 0.00421806 0.0036056 0.0044843 0.00421806 0.00409348 0.0044843 0.0045985 0.0036056 0.0044843 0.00384579 0.00444231 0.0044843 0.0045985 0.00444231 0.00503882 0.00186451 0.00293573 0.00147455 0.00279796 0.00293573 0.00328111 0.00279796 0.00318681 0.00279796 0.00318681 0.00266215 0.00319559 0.00533476 0.0060289 0.00482892 0.00552918 0.0060289 0.00441366 0.00552918 0.0042073 0.00482892 0.00552918 0.00469904 0.00453126 0.00552918 0.0042073 0.00453126 0.00379135 0.00503822 0.00568124 0.00528148 0.00577113 0.00528148 0.00577113 0.00523272 0.00563056 0.00708729 0.00709214 0.00707195 0.00707309 0.00709214 0.00557795 0.00707309 0.00550542 0.00707195 0.00707309 0.00703455 0.00699091 0.00707309 0.00550542 0.00699091 0.00545657 0.00387013 0.00395308 0.00404379 0.00402885 0.00404379 0.00402885 0.00422181 0.00410852 0.00422181 0.00410852 0.00440434 0.00421646 0.00440434 0.00421646 0.00457415 0.00434074 0.00415423 0.00372492 0.00436608 0.00395967 0.00436608 0.00395967 0.00454884 0.00419441 0.00419441 0.00345698 0.00439652 0.00354396 0.00345698 0.00271955 0.00354396 0.00280932 0.00439652 0.00354396 0.00454186 0.00370498 0.00354396 0.00280932 0.00370498 0.0029053 0.00333094 0.00288218 0.00320794 0.00280524 0.00288218 0.00196585 0.00280524 0.00195223 0.00320794 0.00280524 0.00315685 0.0027655 0.00280524 0.00195223 0.0027655 0.00205668 0.00454884 0.00419441 0.00471774 0.00439652 0.00471774 0.00439652 0.0048478 0.00454186 0.001278 0.00266215 0.00117579 0.00252787 0.00266215 0.00319559 0.00252787 0.00326148 0.00252787 0.00326148 0.00266528 0.00341696 0.0048478 0.00454186 0.00498075 0.00464877 0.00498075 0.00464877 0.00472264 0.00483219 0.00296394 0.0025567 0.0028443 0.00251006 0.0025567 0.00232977 0.00251006 0.00231735 0.0028443 0.00251006 0.0028032 0.0025557 0.00251006 0.00231735 0.0025557 0.00233553 0.0033223 0.00279643 0.00341587 0.00281197 0.00279643 0.00216604 0.00281197 0.00202259 0.00341587 0.00281197 0.00338138 0.00277446 0.00281197 0.00202259 0.00277446 0.00183578 0.00356806 0.002577 0.00342698 0.00250746 0.00328111 0.00388462 0.00318681 0.00380652 0.00318681 0.00380652 0.00319559 0.00372214 0.00353772 0.00395629 0.00328111 0.00388462 0.00703455 0.00699091 0.00696075 0.00677701 0.00699091 0.00545657 0.00677701 0.00544874 0.00696075 0.00677701 0.00680578 0.0065735 0.00677701 0.00544874 0.0065735 0.0051354 0.00525964 0.00540373 0.00491922 0.00514927 0.00322144 0.00272302 0.00324249 0.00274509 0.00272302 0.00203909 0.00274509 0.00200259 0.00324249 0.00274509 0.00327267 0.00275611 0.00274509 0.00200259 0.00275611 0.0020807 0.00344856 0.00304593 0.00318076 0.00277872 0.00318076 0.00277872 0.00294435 0.00249364 0.00235373 0.00243107 0.00239521 0.00245088 0.00239521 0.00245088 0.00238102 0.00242097 0.00322167 0.00270235 0.00311257 0.00264635 0.00270235 0.00238102 0.00264635 0.00235135 0.00311257 0.00264635 0.00296394 0.0025567 0.00264635 0.00235135 0.0025567 0.00232977 0.00387866 0.00340652 0.00369565 0.00325693 0.00369565 0.00325693 0.00344856 0.00304593 0.00331901 0.00274309 0.00329271 0.00272883 0.00274309 0.00235373 0.00272883 0.00239521 0.00329271 0.00272883 0.00322167 0.00270235 0.00272883 0.00239521 0.00270235 0.00238102 0.00379761 0.00294435 0.00347655 0.00278253 0.00294435 0.00249364 0.00278253 0.0023479 0.00347655 0.00278253 0.00326529 0.00272574 0.00278253 0.0023479 0.00272574 0.00220217 0.00454186 0.00370498 0.00464877 0.00387081 0.00464877 0.00387081 0.00483219 0.0039592 0.00387081 0.00309192 0.0039592 0.00328236 0.00271955 0.00291377 0.00280932 0.00300695 0.00291377 0.00384579 0.00300695 0.00390023 0.00280932 0.00300695 0.0029053 0.00304966 0.00300695 0.00390023 0.00304966 0.00395467 0.00338138 0.00277446 0.00320216 0.00267738 0.00277446 0.00183578 0.00267738 0.00174096 0.00320216 0.00267738 0.00298465 0.00256056 0.00267738 0.00174096 0.00256056 0.00179228 0.00272078 0.00233963 0.00341288 0.00295126 0.00179228 0.00175777 0.0019164 0.00184146 0.0019164 0.00184146 0.00201757 0.00170158 0.00184146 0.00124581 0.00170158 0.00138558 0.00113841 0.0014803 0.00124581 0.00143116 0.0014803 0.00159633 0.00143116 0.00167112 0.00124581 0.00143116 0.00138558 0.00143006 0.00143116 0.00167112 0.00143006 0.00178033 0.00680578 0.0065735 0.00631203 0.0062085 0.0065735 0.0051354 0.0062085 0.00497341 0.00631203 0.0062085 0.00527841 0.00595692 0.0062085 0.00497341 0.00595692 0.00433093 0.00138558 0.00143006 0.00153729 0.00151592 0.00143006 0.00178033 0.00151592 0.00189976 0.00153729 0.00151592 0.00168899 0.00173293 0.00151592 0.00189976 0.00173293 0.00211759 0.00216604 0.002175 0.00202259 0.00203164 0.002175 0.00187227 0.00203164 0.00158457 0.00202259 0.00203164 0.00183578 0.00182244 0.00203164 0.00158457 0.00182244 0.00131016 0.00380308 0.00452085 0.00375114 0.00449525 0.00397926 0.00340657 0.00387866 0.00340652 0.00562792 0.00584459 0.00553835 0.00573417 0.0020807 0.00216377 0.00223188 0.00231436 0.00216377 0.00172331 0.00231436 0.00149333 0.00223188 0.00231436 0.00235373 0.00243107 0.00231436 0.00149333 0.00243107 0.00145911 0.00145911 0.00154135 0.00148671 0.00121634 0.00148671 0.00121634 0.0015084 0.00101764 0.00553835 0.00573417 0.0054461 0.00559119 0.00277171 0.00343587 0.00245987 0.00278419 0.00343587 0.00260826 0.00278419 0.00244363 0.00205668 0.00210123 0.00216766 0.00217394 0.00210123 0.00245987 0.00217394 0.00215951 0.00216766 0.00217394 0.00216604 0.002175 0.00217394 0.00215951 0.002175 0.00187227 0.00245987 0.00278419 0.00215951 0.00215892 0.00278419 0.00244363 0.00215892 0.00224852 0.00215951 0.00215892 0.00187227 0.00168232 0.00215892 0.00224852 0.00168232 0.00203565 0.00326529 0.00272574 0.00323484 0.0027048 0.00272574 0.00220217 0.0027048 0.002128 0.00323484 0.0027048 0.00322144 0.00272302 0.0