# vtk DataFile Version 3.0
#This file was generated by the deal.II library on 2023/3/1 at 4:17:28
ASCII
DATASET UNSTRUCTURED_GRID

FIELD FieldData 2
CYCLE 1 1 int
152
TIME 1 1 double
0.304
POINTS 5680 double
-0.877452 0.707107 -2.11836
-4.21198e-16 0.707107 -2.29289
-1.0016 0.92388 -2.41809
-4.80793e-16 0.92388 -2.61732
-1.85072 0.92388 -1.85072
-1.0016 0.92388 -2.41809
-2.12132 1 -2.12132
-1.14805 1 -2.77164
3.70711 -0.707107 0
3.42492 -0.707107 1.41865
3.38268 -0.92388 0
3.12519 -0.92388 1.2945
3.38268 0.92388 0
3.12519 0.92388 1.2945
3.70711 0.707107 0
3.42492 0.707107 1.41865
-2.12132 -1 -2.12132
-1.14805 -1 -2.77164
-1.85072 -0.92388 -1.85072
-1.0016 -0.92388 -2.41809
1.62132 0.707107 1.62132
0.877452 0.707107 2.11836
1.85072 0.92388 1.85072
1.0016 0.92388 2.41809
0.877452 0.707107 2.11836
1.40399e-16 0.707107 2.29289
1.0016 0.92388 2.41809
1.60264e-16 0.92388 2.61732
1.0016 0.92388 2.41809
1.60264e-16 0.92388 2.61732
1.14805 1 2.77164
0 1 3
2.12132 -1 2.12132
1.14805 -1 2.77164
1.85072 -0.92388 1.85072
1.0016 -0.92388 2.41809
1.14805 -1 2.77164
0 -1 3
1.0016 -0.92388 2.41809
1.60264e-16 -0.92388 2.61732
1.85072 -0.92388 1.85072
1.0016 -0.92388 2.41809
1.62132 -0.707107 1.62132
0.877452 -0.707107 2.11836
1.0016 -0.92388 2.41809
1.60264e-16 -0.92388 2.61732
0.877452 -0.707107 2.11836
1.40399e-16 -0.707107 2.29289
-1.41421 1.22465e-16 -1.41421
-0.765367 1.22465e-16 -1.84776
-1.46804 0.382683 -1.46804
-0.794497 0.382683 -1.91809
3.69552 0 1.53073
2.82843 0 2.82843
3.62519 -0.382683 1.5016
2.7746 -0.382683 2.7746
2.62132 -0.707107 2.62132
1.41865 -0.707107 3.42492
2.39192 -0.92388 2.39192
1.2945 -0.92388 3.12519
1.2945 -0.92388 3.12519
2.0713e-16 -0.92388 3.38268
1.14805 -1 2.77164
0 -1 3
1.14805 1 2.77164
0 1 3
1.2945 0.92388 3.12519
2.0713e-16 0.92388 3.38268
2.39192 0.92388 2.39192
1.2945 0.92388 3.12519
2.62132 0.707107 2.62132
1.41865 0.707107 3.42492
3.62519 0.382683 1.5016
2.7746 0.382683 2.7746
3.69552 0 1.53073
2.82843 0 2.82843
1.41421 1.22465e-16 1.41421
0.765367 1.22465e-16 1.84776
1.46804 0.382683 1.46804
0.794497 0.382683 1.91809
0.765367 1.22465e-16 1.84776
0 0 2
0.794497 0.382683 1.91809
1.27126e-16 0.382683 2.07612
1.46804 0.382683 1.46804
0.794497 0.382683 1.91809
1.62132 0.707107 1.62132
0.877452 0.707107 2.11836
0.794497 0.382683 1.91809
1.27126e-16 0.382683 2.07612
0.877452 0.707107 2.11836
1.40399e-16 0.707107 2.29289
2.82843 0 2.82843
1.53073 0 3.69552
2.7746 -0.382683 2.7746
1.5016 -0.382683 3.62519
1.53073 0 3.69552
0 0 4
1.5016 -0.382683 3.62519
2.40268e-16 -0.382683 3.92388
2.7746 -0.382683 2.7746
1.5016 -0.382683 3.62519
2.62132 -0.707107 2.62132
1.41865 -0.707107 3.42492
1.5016 -0.382683 3.62519
2.40268e-16 -0.382683 3.92388
1.41865 -0.707107 3.42492
2.26995e-16 -0.707107 3.70711
1.5016 0.382683 3.62519
2.40268e-16 0.382683 3.92388
1.53073 0 3.69552
0 0 4
0 0 2
-0.765367 1.22465e-16 1.84776
1.27126e-16 0.382683 2.07612
-0.794497 0.382683 1.91809
1.27126e-16 0.382683 2.07612
-0.794497 0.382683 1.91809
1.40399e-16 0.707107 2.29289
-0.877452 0.707107 2.11836
1.40399e-16 0.707107 2.29289
-0.877452 0.707107 2.11836
1.60264e-16 0.92388 2.61732
-1.0016 0.92388 2.41809
-0.877452 0.707107 2.11836
-1.62132 0.707107 1.62132
-1.0016 0.92388 2.41809
-1.85072 0.92388 1.85072
1.60264e-16 0.92388 2.61732
-1.0016 0.92388 2.41809
0 1 3
-1.14805 1 2.77164
-1.0016 0.92388 2.41809
-1.85072 0.92388 1.85072
-1.14805 1 2.77164
-2.12132 1 2.12132
-1.14805 -1 2.77164
-2.12132 -1 2.12132
-1.0016 -0.92388 2.41809
-1.85072 -0.92388 1.85072
-1.0016 -0.92388 2.41809
-1.85072 -0.92388 1.85072
-0.877452 -0.707107 2.11836
-1.62132 -0.707107 1.62132
-0.877452 -0.707107 2.11836
-1.62132 -0.707107 1.62132
-0.794497 -0.382683 1.91809
-1.46804 -0.382683 1.46804
-1.53073 0 3.69552
-2.82843 0 2.82843
-1.5016 -0.382683 3.62519
-2.7746 -0.382683 2.7746
2.40268e-16 -0.382683 3.92388
-1.5016 -0.382683 3.62519
2.26995e-16 -0.707107 3.70711
-1.41865 -0.707107 3.42492
-1.14805 1 2.77164
-2.12132 1 2.12132
-1.2945 0.92388 3.12519
-2.39192 0.92388 2.39192
2.26995e-16 0.707107 3.70711
-1.41865 0.707107 3.42492
2.40268e-16 0.382683 3.92388
-1.5016 0.382683 3.62519
-1.41865 0.707107 3.42492
-2.62132 0.707107 2.62132
-1.5016 0.382683 3.62519
-2.7746 0.382683 2.7746
-1.5016 0.382683 3.62519
-2.7746 0.382683 2.7746
-1.53073 0 3.69552
-2.82843 0 2.82843
-1.41421 1.22465e-16 1.41421
-1.84776 1.22465e-16 0.765367
-1.46804 0.382683 1.46804
-1.91809 0.382683 0.794497
-1.84776 1.22465e-16 0.765367
-2 0 0
-1.91809 0.382683 0.794497
-2.07612 0.382683 2.54251e-16
-1.46804 0.382683 1.46804
-1.91809 0.382683 0.794497
-1.62132 0.707107 1.62132
-2.11836 0.707107 0.877452
-1.62132 0.707107 1.62132
-2.11836 0.707107 0.877452
-1.85072 0.92388 1.85072
-2.41809 0.92388 1.0016
-2.41809 0.92388 1.0016
-2.61732 0.92388 3.20529e-16
-2.77164 1 1.14805
-3 1 0
-2.11836 -0.707107 0.877452
-2.29289 -0.707107 2.80798e-16
-1.91809 -0.382683 0.794497
-2.07612 -0.382683 2.54251e-16
-1.46804 -0.382683 1.46804
-1.91809 -0.382683 0.794497
-1.41421 1.22465e-16 1.41421
-1.84776 1.22465e-16 0.765367
-1.91809 -0.382683 0.794497
-2.07612 -0.382683 2.54251e-16
-1.84776 1.22465e-16 0.765367
-2 0 0
-2.82843 0 2.82843
-3.69552 0 1.53073
-2.7746 -0.382683 2.7746
-3.62519 -0.382683 1.5016
-2.39192 -0.92388 2.39192
-3.12519 -0.92388 1.2945
-2.12132 -1 2.12132
-2.77164 -1 1.14805
-3.12519 -0.92388 1.2945
-3.38268 -0.92388 4.14259e-16
-2.77164 -1 1.14805
-3 -1 0
-2.77164 1 1.14805
-3 1 0
-3.12519 0.92388 1.2945
-3.38268 0.92388 4.14259e-16
-3.12519 0.92388 1.2945
-3.38268 0.92388 4.14259e-16
-3.42492 0.707107 1.41865
-3.70711 0.707107 4.5399e-16
-2.62132 0.707107 2.62132
-3.42492 0.707107 1.41865
-2.7746 0.382683 2.7746
-3.62519 0.382683 1.5016
-2.7746 0.382683 2.7746
-3.62519 0.382683 1.5016
-2.82843 0 2.82843
-3.69552 0 1.53073
-3.62519 0.382683 1.5016
-3.92388 0.382683 4.80537e-16
-3.69552 0 1.53073
-4 0 0
-2 0 0
-1.84776 1.22465e-16 -0.765367
-2.07612 0.382683 2.54251e-16
-1.91809 0.382683 -0.794497
-1.91809 0.382683 -0.794497
-1.46804 0.382683 -1.46804
-2.11836 0.707107 -0.877452
-1.62132 0.707107 -1.62132
-2.29289 0.707107 2.80798e-16
-2.11836 0.707107 -0.877452
-2.61732 0.92388 3.20529e-16
-2.41809 0.92388 -1.0016
-2.11836 0.707107 -0.877452
-1.62132 0.707107 -1.62132
-2.41809 0.92388 -1.0016
-1.85072 0.92388 -1.85072
-2.41809 0.92388 -1.0016
-1.85072 0.92388 -1.85072
-2.77164 1 -1.14805
-2.12132 1 -2.12132
-3 -1 0
-2.77164 -1 -1.14805
-2.61732 -0.92388 3.20529e-16
-2.41809 -0.92388 -1.0016
-2.77164 -1 -1.14805
-2.12132 -1 -2.12132
-2.41809 -0.92388 -1.0016
-1.85072 -0.92388 -1.85072
-2.61732 -0.92388 3.20529e-16
-2.41809 -0.92388 -1.0016
-2.29289 -0.707107 2.80798e-16
-2.11836 -0.707107 -0.877452
-2.29289 -0.707107 2.80798e-16
-2.11836 -0.707107 -0.877452
-2.07612 -0.382683 2.54251e-16
-1.91809 -0.382683 -0.794497
-2.07612 -0.382683 2.54251e-16
-1.91809 -0.382683 -0.794497
-2 0 0
-1.84776 1.22465e-16 -0.765367
-1.91809 -0.382683 -0.794497
-1.46804 -0.382683 -1.46804
-1.84776 1.22465e-16 -0.765367
-1.41421 1.22465e-16 -1.41421
-3.42492 -0.707107 -1.41865
-2.62132 -0.707107 -2.62132
-3.12519 -0.92388 -1.2945
-2.39192 -0.92388 -2.39192
-3.38268 -0.92388 4.14259e-16
-3.12519 -0.92388 -1.2945
-3 -1 0
-2.77164 -1 -1.14805
-3.12519 0.92388 -1.2945
-2.39192 0.92388 -2.39192
-3.42492 0.707107 -1.41865
-2.62132 0.707107 -2.62132
1.62132 -0.707107 1.62132
0.877452 -0.707107 2.11836
1.46804 -0.382683 1.46804
0.794497 -0.382683 1.91809
0.877452 -0.707107 2.11836
1.40399e-16 -0.707107 2.29289
0.794497 -0.382683 1.91809
1.27126e-16 -0.382683 2.07612
2.56703 -0.92388 0.510613
2.41809 -0.92388 1.0016
2.39746 -0.83147 0.476885
2.25836 -0.83147 0.935443
2.29289 0.707107 0
2.24884 0.707107 0.447321
2.44443 0.83147 0
2.39746 0.83147 0.476885
2.24884 0.707107 0.447321
2.11836 0.707107 0.877452
2.39746 0.83147 0.476885
2.25836 0.83147 0.935443
2.44443 0.83147 0
2.39746 0.83147 0.476885
2.61732 0.92388 0
2.56703 0.92388 0.510613
2.39746 0.83147 0.476885
2.25836 0.83147 0.935443
2.56703 0.92388 0.510613
2.41809 0.92388 1.0016
2.11836 0.707107 0.877452
1.90647 0.707107 1.27386
2.25836 0.83147 0.935443
2.03247 0.83147 1.35805
1.90647 0.707107 1.27386
1.62132 0.707107 1.62132
2.03247 0.83147 1.35805
1.72847 0.83147 1.72847
2.25836 0.83147 0.935443
2.03247 0.83147 1.35805
2.41809 0.92388 1.0016
2.17622 0.92388 1.4541
2.03247 0.83147 1.35805
1.72847 0.83147 1.72847
2.17622 0.92388 1.4541
1.85072 0.92388 1.85072
2.61732 0.92388 0
2.56703 0.92388 0.510613
2.80491 0.980785 0
2.75101 0.980785 0.547211
2.56703 0.92388 0.510613
2.41809 0.92388 1.0016
2.75101 0.980785 0.547211
2.5914 0.980785 1.07339
2.80491 0.980785 0
2.75101 0.980785 0.547211
3 1 0
2.94236 1 0.585271
2.75101 0.980785 0.547211
2.5914 0.980785 1.07339
2.94236 1 0.585271
2.77164 1 1.14805
2.41809 0.92388 1.0016
2.17622 0.92388 1.4541
2.5914 0.980785 1.07339
2.3322 0.980785 1.55832
2.17622 0.92388 1.4541
1.85072 0.92388 1.85072
2.3322 0.980785 1.55832
1.98337 0.980785 1.98337
2.5914 0.980785 1.07339
2.3322 0.980785 1.55832
2.77164 1 1.14805
2.49441 1 1.66671
2.3322 0.980785 1.55832
1.98337 0.980785 1.98337
2.49441 1 1.66671
2.12132 1 2.12132
3 -1 0
2.94236 -1 0.585271
2.80491 -0.980785 0
2.75101 -0.980785 0.547211
2.94236 -1 0.585271
2.77164 -1 1.14805
2.75101 -0.980785 0.547211
2.5914 -0.980785 1.07339
2.80491 -0.980785 0
2.75101 -0.980785 0.547211
2.61732 -0.92388 0
2.56703 -0.92388 0.510613
2.75101 -0.980785 0.547211
2.5914 -0.980785 1.07339
2.56703 -0.92388 0.510613
2.41809 -0.92388 1.0016
2.77164 -1 1.14805
2.49441 -1 1.66671
2.5914 -0.980785 1.07339
2.3322 -0.980785 1.55832
2.49441 -1 1.66671
2.12132 -1 2.12132
2.3322 -0.980785 1.55832
1.98337 -0.980785 1.98337
2.5914 -0.980785 1.07339
2.3322 -0.980785 1.55832
2.41809 -0.92388 1.0016
2.17622 -0.92388 1.4541
2.3322 -0.980785 1.55832
1.98337 -0.980785 1.98337
2.17622 -0.92388 1.4541
1.85072 -0.92388 1.85072
2.41809 -0.92388 1.0016
2.17622 -0.92388 1.4541
2.25836 -0.83147 0.935443
2.03247 -0.83147 1.35805
2.17622 -0.92388 1.4541
1.85072 -0.92388 1.85072
2.03247 -0.83147 1.35805
[...]
POINT_DATA 5680
SCALARS U double 1
LOOKUP_TABLE default
0.00459878 0.00467182 0.00423642 0.00445033 0.00317059 0.00423642 0.00297021 0.00396462 0.000499484 0.00156979 0.00131504 0.00207558 0.00134494 0.00206962 0.000500653 0.00157222 0.00295322 0.00386827 0.00313378 0.00401595 0.00407602 0.00456156 0.0036324 0.00415608 0.00456156 0.00445329 0.00415608 0.00405618 0.00415608 0.00405618 0.00371484 0.00357584 0.00308145 0.00368877 0.00344345 0.00411881 0.00368877 0.00358339 0.00411881 0.00411323 0.00344345 0.00411881 0.0038463 0.00457272 0.00411881 0.00411323 0.00457272 0.00455081 0.00356304 0.00453308 0.00347261 0.0046131 0.00128318 0.00247906 0.00132302 0.00250409 0.00260265 0.00319206 0.00280978 0.00337913 0.00337913 0.0031534 0.00368877 0.00358339 0.00371484 0.00357584 0.00340724 0.00317333 0.00285591 0.00340724 0.00261814 0.00322209 0.00132167 0.00251316 0.00128318 0.00247906 0.00432158 0.00499447 0.00429706 0.00484208 0.00499447 0.00482887 0.00484208 0.00469415 0.00429706 0.00484208 0.00407602 0.00456156 0.00484208 0.00469415 0.00456156 0.00445329 0.00247906 0.00307093 0.00250409 0.00309569 0.00307093 0.00300929 0.00309569 0.00294306 0.00250409 0.00309569 0.00260265 0.00319206 0.00309569 0.00294306 0.00319206 0.00296185 0.00310374 0.00296363 0.00307093 0.00300929 0.00482887 0.00395813 0.00469415 0.00389917 0.00469415 0.00389917 0.00445329 0.00368703 0.00445329 0.00368703 0.00405618 0.00335011 0.00368703 0.00308591 0.00335011 0.00276036 0.00405618 0.00335011 0.00357584 0.00297488 0.00335011 0.00276036 0.00297488 0.00236356 0.00304536 0.00234039 0.00344965 0.00245422 0.00344965 0.00245422 0.0037639 0.00281925 0.0037639 0.00281925 0.0039164 0.00315812 0.002883 0.00275552 0.00265591 0.00271091 0.00294306 0.00265591 0.00296185 0.00246665 0.00297488 0.00236356 0.00265612 0.00220062 0.00299069 0.00260891 0.00296363 0.00278321 0.00260891 0.00241933 0.00278321 0.00269041 0.00278321 0.00269041 0.002883 0.00275552 0.00330873 0.00390947 0.00326949 0.00384646 0.00390947 0.00432236 0.00384646 0.00423623 0.00326949 0.00384646 0.00308591 0.00359457 0.00308591 0.00359457 0.00276036 0.0031513 0.0031513 0.00333044 0.00262226 0.00256888 0.00362602 0.00398745 0.00382637 0.00425309 0.00315812 0.00382637 0.00330873 0.00390947 0.00382637 0.00425309 0.00390947 0.00432236 0.00275552 0.0019501 0.00271091 0.00197104 0.00237316 0.00251333 0.00234039 0.00290613 0.00251333 0.00216004 0.00290613 0.00279186 0.00262226 0.00256888 0.00222841 0.00193881 0.00222841 0.00193881 0.00202711 0.00149622 0.00241933 0.00202711 0.00269041 0.00195481 0.00269041 0.00195481 0.00275552 0.0019501 0.00195481 0.00130459 0.0019501 0.00130474 0.00432236 0.00438492 0.00423623 0.00395424 0.00395424 0.00347261 0.00360907 0.00340946 0.00392722 0.00360907 0.00333044 0.00352482 0.00360907 0.00340946 0.00352482 0.00317059 0.00352482 0.00317059 0.00331751 0.00297021 0.00279186 0.00338153 0.00341517 0.00391449 0.00338153 0.00295322 0.00391449 0.00313378 0.00341517 0.00391449 0.00398745 0.00433942 0.00398745 0.00433942 0.00425309 0.00449187 0.00425309 0.00449187 0.00432236 0.00438492 0.00449187 0.00357019 0.00438492 0.00356304 0.00185542 0.00293277 0.00266007 0.00289107 0.00216004 0.00266007 0.00279186 0.00338153 0.0026769 0.00289636 0.00186311 0.00293349 0.0038463 0.00457272 0.0042661 0.00490292 0.00457272 0.00455081 0.00490292 0.00480866 0.00408184 0.00295428 0.00371559 0.00336957 0.00465969 0.00521929 0.00347707 0.00477251 0.00521929 0.00299793 0.00477251 0.0029571 0.00347707 0.00477251 0.00225894 0.00431903 0.00477251 0.0029571 0.00431903 0.00288518 0.00299793 0.00371832 0.0029571 0.00360992 0.00371832 0.00407602 0.00360992 0.00385421 0.0029571 0.00360992 0.00288518 0.00346913 0.00360992 0.00385421 0.00346913 0.0036324 0.00225894 0.00431903 0.00184663 0.00400546 0.00431903 0.00288518 0.00400546 0.00264362 0.00184663 0.00400546 0.00158437 0.00366853 0.00400546 0.00264362 0.00366853 0.00236231 0.00288518 0.00346913 0.00264362 0.00324578 0.00346913 0.0036324 0.00324578 0.00339762 0.00264362 0.00324578 0.00236231 0.00299079 0.00324578 0.00339762 0.00299079 0.00318393 0.00159641 0.00381282 0.00166522 0.00429007 0.00381282 0.00230397 0.00429007 0.00255045 0.00166522 0.00429007 0.00255181 0.00408184 0.00429007 0.00255045 0.00408184 0.00295428 0.00230397 0.00291297 0.00255045 0.0031482 0.00291297 0.00308145 0.0031482 0.00326245 0.00255045 0.0031482 0.00295428 0.00334528 0.0031482 0.00326245 0.00334528 0.00344345 0.00295428 0.00334528 0.00336957 0.00353785 0.00334528 0.00344345 0.00353785 0.00364487 0.00336957 0.00353785 0.00349754 0.00375806 0.00353785 0.00364487 0.00375806 0.0038463 0.00401595 0.00411964 0.00415854 0.00426498 0.00411964 0.00424857 0.00426498 0.00429966 0.00415854 0.00426498 0.00430278 0.00439448 0.00426498 0.00429966 0.00439448 0.00441399 0.00340946 0.00398473 0.00329002 0.0038571 0.00398473 0.00459878 0.0038571 0.0044176 0.00329002 0.0038571 0.00317059 0.0037035 0.0038571 0.0044176 0.0037035 0.00423642 0.00156979 0.00204819 0.00182268 0.00218582 0.00204819 0.00260265 0.00218582 0.00270622 0.00182268 0.00218582 0.00207558 0.00236625 0.00218582 0.00270622 0.00236625 0.00280978 0.00130995 0.00247626 0.00131392 0.00246347 0.00247626 0.00388921 0.00246347 0.00375607 0.00246347 0.00375607 0.00245945 0.00345001 0.00131504 0.00169531 0.00145228 0.00379628 0.00169531 0.00207558 0.00379628 0.00192447 0.00145228 0.00379628 0.00159641 0.00381282 0.00379628 0.00192447 0.00381282 0.00230397 0.00207558 0.00236625 0.00192447 0.00270208 0.00236625 0.00280978 0.00270208 0.00291929 0.00192447 0.00270208 0.00230397 0.00291297 0.00270208 0.00291929 0.00291297 0.00308145 0.00130474 0.00132418 0.00130566 0.0014478 0.00130566 0.0014478 0.00132008 0.00156701 0.0014478 0.00131392 0.00156701 0.00137671 0.00132008 0.00156701 0.0014167 0.00162903 0.00158437 0.00366853 0.00134341 0.0037575 0.00366853 0.00236231 0.0037575 0.00194447 0.00134341 0.0037575 0.00134494 0.00170728 0.0037575 0.00194447 0.00170728 0.00206962 0.00423642 0.00434338 0.00410052 0.00412017 0.00434338 0.00445033 0.00412017 0.0043131 0.00410052 0.00412017 0.00396462 0.00379171 0.00236231 0.00299079 0.00194447 0.00275075 0.00299079 0.00318393 0.00275075 0.0029951 0.00194447 0.00275075 0.00206962 0.00238779 0.00275075 0.0029951 0.00238779 0.00285591 0.00206962 0.00238779 0.00182092 0.0021973 0.00238779 0.00285591 0.0021973 0.00273703 0.00182092 0.0021973 0.00157222 0.00205718 0.0021973 0.00273703 0.00205718 0.00261814 0.00137671 0.00245945 0.00154771 0.00245374 0.00245945 0.00345001 0.00245374 0.00312079 0.00154771 0.00245374 0.00185542 0.0023941 0.00245374 0.00312079 0.0023941 0.00293277 0.00149622 0.0019518 0.00138862 0.00162071 0.0019518 0.00186311 0.00162071 0.00156931 0.00186311 0.0023983 0.00156931 0.00245166 0.0023983 0.00293349 0.00245166 0.00312152 0.00245166 0.00312152 0.0024575 0.00345141 0.00453308 0.00472654 0.00457309 0.00478198 0.00472654 0.00469563 0.00478198 0.00473235 0.00457309 0.00478198 0.0046131 0.00484127 0.00478198 0.00473235 0.00484127 0.00478676 0.00313378 0.00357486 0.00326995 0.00370681 0.00357486 0.00401595 0.00370681 0.00415854 0.00326995 0.00370681 0.00340706 0.00381474 0.00370681 0.00415854 0.00381474 0.00430278 0.0036324 0.00389424 0.00339762 0.00368158 0.00389424 0.00415608 0.00368158 0.00393546 0.00339762 0.00368158 0.00318393 0.00347145 0.00368158 0.00393546 0.00347145 0.00371484 0.00381474 0.00430278 0.00379303 0.00441425 0.00350327 0.00379303 0.00357019 0.00379411 0.00379303 0.00441425 0.00379411 0.00447027 0.00430278 0.00439448 0.00441425 0.00452162 0.00439448 0.00441399 0.00452162 0.00454224 0.00441425 0.00452162 0.00447027 0.00461936 0.00452162 0.00454224 0.00461936 0.00462748 0.00347261 0.00404285 0.00344103 0.00402612 0.00404285 0.0046131 0.00402612 0.00461224 0.00344103 0.00402612 0.00340946 0.00398473 0.00402612 0.00461224 0.00398473 0.00459878 0.00357019 0.00379411 0.00356661 0.00386361 0.00379411 0.00447027 0.00386361 0.00450768 0.00356661 0.00386361 0.00356304 0.00404806 0.00386361 0.00450768 0.00404806 0.00453308 0.000149099 0.00142517 0.000167921 0.00144198 0.00142517 0.00128318 0.00144198 0.0013031 0.000167921 0.00144198 0.000218751 0.00144967 0.00144198 0.0013031 0.00144967 0.00132302 0.000218751 0.00144967 0.000261091 0.0016727 0.00144967 0.00132302 0.0016727 0.00139199 0.000261091 0.0016727 0.000499484 0.00103463 0.0016727 0.00139199 0.00103463 0.00156979 0.00141157 0.0024575 0.00134538 0.00247096 0.00134538 0.00247096 0.00130995 0.00247626 0.00247096 0.00376622 0.00247626 0.00388921 0.00132302 0.00191356 0.00139199 0.00197511 0.00191356 0.00250409 0.00197511 0.00255337 0.00139199 0.00197511 0.00156979 0.00204819 0.00197511 0.00255337 0.00204819 0.00260265 0.00319206 0.00307695 0.00328559 0.00316551 0.00307695 0.00296185 0.00316551 0.00303854 0.00328559 0.00316551 0.00337913 0.00326627 0.00316551 0.00303854 0.00326627 0.0031534 0.00280978 0.00309446 0.00291929 0.0032436 0.00309446 0.00337913 0.0032436 0.00353395 0.00291929 0.0032436 0.00308145 0.00338511 0.0032436 0.00353395 0.00338511 0.00368877 0.00318393 0.00347145 0.0029951 0.00329539 0.00347145 0.00371484 0.00329539 0.00356104 0.0029951 0.00329539 0.00285591 0.00313157 0.00329539 0.00356104 0.00313157 0.00340724 0.00340724 0.00329028 0.00331466 0.0031912 0.00329028 0.00317333 0.0031912 0.003064 0.00331466 0.0031912 0.00322209 0.00311009 0.0031912 0.003064 0.00311009 0.00299069 0.00447027 0.00461936 0.00450768 0.00467872 0.00461936 0.00462748 0.00467872 0.00467069 0.00450768 0.00467872 0.00453308 0.00472654 0.00467872 0.00467069 0.00472654 0.00469563 0.00345001 0.00348919 0.00312079 0.00339851 0.00348919 0.00338335 0.00339851 0.00364066 0.00312079 0.00339851 0.00293277 0.003305 0.00339851 0.00364066 0.003305 0.00380338 0.00386827 0.00360778 0.00394211 0.00388534 0.00394211 0.00388534 0.00401595 0.00411964 0.000500653 0.00103644 0.000256504 0.00167143 0.00103644 0.00157222 0.00167143 0.00139365 0.000256504 0.00167143 0.000220042 0.00144985 0.00167143 0.00139365 0.00144985 0.00132167 0.00157222 0.00205718 0.00139365 0.00198265 0.00205718 0.00261814 0.00198265 0.00255799 0.00139365 0.00198265 0.00132167 0.00191741 0.00198265 0.00255799 0.00191741 0.00251316 0.000220042 0.00144985 0.000169015 0.00144204 0.00144985 0.00132167 0.00144204 0.00130243 0.000169015 0.00144204 0.000149099 0.00142517 0.00144204 0.00130243 0.00142517 0.00128318 0.00130459 0.00137433 0.00130466 0.00130382 0.00137433 0.00141157 0.00130382 0.00134538 0.00130466 0.00130382 0.00130474 0.00132418 0.00130382 0.00134538 0.00132418 0.00130995 0.00449534 0.00531132 0.00480242 0.00545139 0.00531132 0.00351854 0.00545139 0.00338595 0.00480242 0.00545139 0.00515431 0.00558813 0.00545139 0.00338595 0.00558813 0.00321301 0.00351854 0.00409482 0.00338595 0.00402698 0.00409482 0.00432158 0.00402698 0.00430932 0.00338595 0.00402698 0.00321301 0.0039196 0.00402698 0.00430932 0.0039196 0.00429706 0.00515431 0.00558813 0.00515662 0.00543 0.00558813 0.00321301 0.00543 0.00309988 0.00515662 0.00543 0.00465969 0.00521929 0.00543 0.00309988 0.00521929 0.00299793 0.00321301 0.0039196 0.00309988 0.00382391 0.0039196 0.00429706 0.00382391 0.00418654 0.00309988 0.00382391 0.00299793 0.00371832 0.00382391 0.00418654 0.00371832 0.00407602 0.0046131 0.00484127 0.00461224 0.00483101 0.00484127 0.00478676 0.00483101 0.00475925 0.00461224 0.00483101 0.00459878 0.0046353 0.00483101 0.00475925 0.0046353 0.00467182 0.00293277 0.003305 0.00291192 0.0032491 0.003305 0.00380338 0.0032491 0.00386544 0.00291192 0.0032491 0.00289107 0.00324063 0.0032491 0.00386544 0.00324063 0.00386367 0.00357391 0.00304204 0.00355111 0.00314126 0.00355111 0.00314126 0.00348919 0.00338335 0.00289107 0.00324063 0.00292429 0.003277 0.00324063 0.00386367 0.003277 0.00385641 0.00292429 0.003277 0.00295322 0.00341075 0.003277 0.00385641 0.00341075 0.00386827 0.00297021 0.00346742 0.00293667 0.00331095 0.00346742 0.00396462 0.00331095 0.00391238 0.00293667 0.00331095 0.00289636 0.00326286 0.00331095 0.00391238 0.00326286 0.00390056 0.00261814 0.00292012 0.00255799 0.0028622 0.00292012 0.00322209 0.0028622 0.00315122 0.00255799 0.0028622 0.00251316 0.0028111 0.0028622 0.00315122 0.0028111 0.00310374 0.00333044 0.00342763 0.00294966 0.00357952 0.00342763 0.00352482 0.00357952 0.00342117 0.00294966 0.00357952 0.00256888 0.00341103 0.00357952 0.00342117 0.00341103 0.00331751 0.00322209 0.00311009 0.00315122 0.00307181 0.00311009 0.00299069 0.00307181 0.00297716 0.00315122 0.00307181 0.00310374 0.00303369 0.00307181 0.00297716 0.00303369 0.00296363 0.00251316 0.0028111 0.00249611 0.00278782 0.0028111 0.00310374 0.00278782 0.00308734 0.00249611 0.00278782 0.00247906 0.002775 0.00278782 0.00308734 0.002775 0.00307093 0.00395813 0.00360606 0.00392865 0.00359929 0.00360606 0.00330873 0.00359929 0.00328911 0.00392865 0.00359929 0.00389917 0.00355644 0.00359929 0.00328911 0.00355644 0.00326949 0.00389917 0.00355644 0.0037931 0.00348078 0.00355644 0.00326949 0.00348078 0.0031777 0.0037931 0.00348078 0.00368703 0.00338647 0.00348078 0.0031777 0.00338647 0.00308591 0.00358339 0.00332084 0.00384831 0.00355786 0.00332084 0.00304536 0.00355786 0.0032475 0.00384831 0.00355786 0.00411323 0.00378642 0.00355786 0.0032475 0.00378642 0.00344965 0.00411323 0.00378642 0.00433202 0.00398957 0.00378642 0.00344965 0.00398957 0.00360678 0.00433202 0.00398957 0.00455081 0.00415747 0.00398957 0.00360678 0.00415747 0.0037639 0.00455081 0.00415747 0.00467973 0.00428515 0.00415747 0.0037639 0.00428515 0.00384015 0.00467973 0.00428515 0.00480866 0.0043657 0.00428515 0.00384015 0.0043657 0.0039164 0.00480866 0.0043657 0.0048202 0.0043952 0.0043657 0.0039164 0.0043952 0.0039468 0.0048202 0.0043952 0.00482887 0.0043935 0.0043952 0.0039468 0.0043935 0.00395813 0.0039164 0.00353726 0.0039468 0.00357851 0.00353726 0.00315812 0.00357851 0.00323343 0.0039468 0.00357851 0.00395813 0.00360606 0.00357851 0.00323343 0.00360606 0.00330873 0.00229824 0.00255505 0.0020311 0.00218139 0.0020311 0.00218139 0.00156544 0.00163399 0.00300929 0.00245127 0.00297617 0.00260173 0.00245127 0.002883 0.00260173 0.00276946 0.00297617 0.00260173 0.00294306 0.00279949 0.00260173 0.00276946 0.00279949 0.00265591 0.00289636 0.00326286 0.00291492 0.00326331 0.00326286 0.00390056 0.00326331 0.00389327 0.00291492 0.00326331 0.00293349 0.00331433 0.00326331 0.00389327 0.00331433 0.00382101 0.00265591 0.00268341 0.00256128 0.00258309 0.00268341 0.00271091 0.00258309 0.00261233 0.00256128 0.00258309 0.00246665 0.00249415 0.00258309 0.00261233 0.00249415 0.00251471 0.00296185 0.00271425 0.00303854 0.0027771 0.00271425 0.00246665 0.0027771 0.00251798 0.00303854 0.0027771 0.0031534 0.00288987 0.0027771 0.00251798 0.00288987 0.00262265 0.00246665 0.00249415 0.00251798 0.00247484 0.00249415 0.00251471 0.00247484 0.00243709 0.00251798 0.00247484 0.00262265 0.00249565 0.00247484 0.00243709 0.00249565 0.00237316 0.00293349 0.00331433 0.00312152 0.00340364 0.00331433 0.00382101 0.00340364 0.00364947 0.00312152 0.00340364 0.00345141 0.00349143 0.00340364 0.00364947 0.00349143 0.0033869 0.00427186 0.00333404 0.00427862 0.00333401 0.00333404 0.00211354 0.00333401 0.00207519 0.00427862 0.00333401 0.00425454 0.0033003 0.00333401 0.00207519 0.0033003 0.00203684 0.0031534 0.00288987 0.00336839 0.00308741 0.00288987 0.00262265 0.00308741 0.00282273 0.00336839 0.00308741 0.00358339 0.00332084 0.00308741 0.00282273 0.00332084 0.00304536 0.00334493 0.00391259 0.00324431 0.00402942 0.00262265 0.00249565 0.00282273 0.00258063 0.00249565 0.00237316 0.00258063 0.00235677 0.00282273 0.00258063 0.00304536 0.00269287 0.00258063 0.00235677 0.00269287 0.00234039 0.00357584 0.00327536 0.00337458 0.00308119 0.00327536 0.00297488 0.00308119 0.0028155 0.00337458 0.00308119 0.00317333 0.00292235 0.00308119 0.0028155 0.00292235 0.00265612 0.00425454 0.0033003 0.00416909 0.00317965 0.0033003 0.00203684 0.00317965 0.00207602 0.00416909 0.00317965 0.00401377 0.00296383 0.00317965 0.00207602 0.00296383 0.00218029 0.00317333 0.00292235 0.003064 0.00283649 0.00292235 0.00265612 0.00283649 0.00260985 0.003064 0.00283649 0.00299069 0.0027998 0.00283649 0.00260985 0.0027998 0.00260891 0.00399003 0.0032192 0.00415953 0.00325648 0.0032192 0.00243128 0.00325648 0.00216837 0.00415953 0.00325648 0.0042358 0.00328839 0.00325648 0.00216837 0.00328839 0.00204667 0.00296363 0.00287342 0.00298646 0.00249552 0.00287342 0.00278321 0.00249552 0.0028331 0.00298646 0.00249552 0.00300929 0.00245127 0.00249552 0.0028331 0.00245127 0.002883 0.00349143 0.0033869 0.00354885 0.00314322 0.00354885 0.00314322 0.00357391 0.00304204 0.00265612 0.00242837 0.00260985 0.00245093 0.00242837 0.00220062 0.00245093 0.00229603 0.00260985 0.00245093 0.00260891 0.00251412 0.00245093 0.00229603 0.00251412 0.00241933 0.0042358 0.00328839 0.00425963 0.00331717 0.00328839 0.00204667 0.00331717 0.00207067 0.00425963 0.00331717 0.00427186 0.00333404 0.00331717 0.00207067 0.00333404 0.00211354 0.00384646 0.00404135 0.00372052 0.00392841 0.00404135 0.00423623 0.00392841 0.00409003 0.00372052 0.00392841 0.00359457 0.00375968 0.00392841 0.00409003 0.00375968 0.00392722 0.00375689 0.00265978 0.00375666 0.00265964 0.00265978 0.00059191 0.00265964 0.00060058 0.00375666 0.00265964 0.00378817 0.00267869 0.00265964 0.00060058 0.00267869 0.000612848 0.00379076 0.00267989 0.00375746 0.00266042 0.00267989 0.000613615 0.00266042 0.000598722 0.00375746 0.00266042 0.00375689 0.00265978 0.00266042 0.000598722 0.00265978 0.00059191 0.00290613 0.00284899 0.00307905 0.00338856 0.00284899 0.00279186 0.00338856 0.00310351 0.00307905 0.00338856 0.00326007 0.0036681 0.00338856 0.00310351 0.0036681 0.00341517 0.0009167 0.000191646 0.000916416 0.000209489 0.000916416 0.000209489 0.000924423 0.000221225 0.000925185 0.000220101 0.000915795 0.000208336 0.000915795 0.000208336 0.0009167 0.000191646 0.00359457 0.00375968 0.00337294 0.00351675 0.00375968 0.00392722 0.00351675 0.00362883 0.00337294 0.00351675 0.0031513 0.00324087 0.00351675 0.00362883 0.00324087 0.00333044 0.00326007 0.0036681 0.00344182 0.00378989 0.0036681 0.00341517 0.00378989 0.00370131 0.00344182 0.00378989 0.00362602 0.00380673 0.00378989 0.00370131 0.00380673 0.00398745 0.00276036 0.00295583 0.00256196 0.00272181 0.00295583 0.0031513 0.00272181 0.00288678 0.00256196 0.00272181 0.00236356 0.00250657 0.00272181 0.00288678 0.00250657 0.00262226 0.00234039 0.00262326 0.00239731 0.00271858 0.00262326 0.00290613 0.00271858 0.00307905 0.00239731 0.00271858 0.00245422 0.00284497 0.00271858 0.00307905 0.00284497 0.00326007 0.000967976 0.00112026 0.00094703 0.000642937 0.00245422 0.00284497 0.00263674 0.00301777 0.00284497 0.00326007 0.00301777 0.00344182 0.00263674 0.00301777 0.00281925 0.00319903 0.00301777 0.00344182 0.00319903 0.00362602 0.00281925 0.00319903 0.00298869 0.00335285 0.00319903 0.00362602 0.00335285 0.00372619 0.00298869 0.00335285 0.00315812 0.00349225 0.00335285 0.00372619 0.00349225 0.00382637 0.0019501 0.00162742 0.00196057 0.00162381 0.00162742 0.00130474 0.00162381 0.00130566 0.00196057 0.00162381 0.00197104 0.00164044 0.00162381 0.00130566 0.00164044 0.00132008 0.00271091 0.00234098 0.00261233 0.00232553 0.00234098 0.00197104 0.00232553 0.00203328 0.00261233 0.00232553 0.00251471 0.00232387 0.00232553 0.00203328 0.00232387 0.00212749 0.00197104 0.00164044 0.00203328 0.00171841 0.00164044 0.00132008 0.00171841 0.0014167 0.00203328 0.00171841 0.00212749 0.0018438 0.00171841 0.0014167 0.0018438 0.00156909 0.00251471 0.00232387 0.00243709 0.00237603 0.00232387 0.00212749 0.00237603 0.00231165 0.00243709 0.00237603 0.00237316 0.00244324 0.00237603 0.00231165 0.00244324 0.00251333 0.00212749 0.0018438 0.00231165 0.00207727 0.0018438 0.00156909 0.00207727 0.00185002 0.00231165 0.00207727 0.00251333 0.00233668 0.00207727 0.00185002 0.00233668 0.00216004 0.00433942 0.00386803 0.00441564 0.00400929 0.00386803 0.00340706 0.00400929 0.00350327 0.00441564 0.00400929 0.00449187 0.00403103 0.00400929 0.00350327 0.00403103 0.00357019 0.00236356 0.00250657 0.00228209 0.00233648 0.00250657 0.00262226 0.00233648 0.00242533 0.002282