# vtk DataFile Version 3.0
#This file was generated by the deal.II library on 2023/3/1 at 4:16:59
ASCII
DATASET UNSTRUCTURED_GRID

FIELD FieldData 2
CYCLE 1 1 int
30
TIME 1 1 double
0.06
POINTS 3196 double
-1.62132 0.707107 -1.62132
-4.21198e-16 0.707107 -2.29289
-2.12132 1 -2.12132
0 1 -3
-2.12132 -1 -2.12132
0 -1 -3
-1.62132 -0.707107 -1.62132
-4.21198e-16 -0.707107 -2.29289
-4 0 0
-2.82843 0 -2.82843
-3.70711 -0.707107 4.5399e-16
-2.62132 -0.707107 -2.62132
-2.82843 0 -2.82843
0 0 -4
-2.62132 -0.707107 -2.62132
-6.80984e-16 -0.707107 -3.70711
-2.62132 -0.707107 -2.62132
-6.80984e-16 -0.707107 -3.70711
-2.12132 -1 -2.12132
0 -1 -3
-2.12132 1 -2.12132
0 1 -3
-2.62132 0.707107 -2.62132
-6.80984e-16 0.707107 -3.70711
-3.70711 0.707107 4.5399e-16
-2.62132 0.707107 -2.62132
-4 0 0
-2.82843 0 -2.82843
-2.62132 0.707107 -2.62132
-6.80984e-16 0.707107 -3.70711
-2.82843 0 -2.82843
0 0 -4
0 0 -2
1.41421 1.22465e-16 -1.41421
-4.21198e-16 0.707107 -2.29289
1.62132 0.707107 -1.62132
1.41421 1.22465e-16 -1.41421
2 0 0
1.62132 0.707107 -1.62132
2.29289 0.707107 0
-4.21198e-16 0.707107 -2.29289
1.62132 0.707107 -1.62132
0 1 -3
2.12132 1 -2.12132
1.62132 0.707107 -1.62132
2.29289 0.707107 0
2.12132 1 -2.12132
3 1 0
0 -1 -3
2.12132 -1 -2.12132
-4.21198e-16 -0.707107 -2.29289
1.62132 -0.707107 -1.62132
2.12132 -1 -2.12132
3 -1 0
1.62132 -0.707107 -1.62132
2.29289 -0.707107 0
-4.21198e-16 -0.707107 -2.29289
1.62132 -0.707107 -1.62132
0 0 -2
1.41421 1.22465e-16 -1.41421
1.62132 -0.707107 -1.62132
2.29289 -0.707107 0
1.41421 1.22465e-16 -1.41421
2 0 0
0 0 -4
2.82843 0 -2.82843
-6.80984e-16 -0.707107 -3.70711
2.62132 -0.707107 -2.62132
-6.80984e-16 -0.707107 -3.70711
2.62132 -0.707107 -2.62132
0 -1 -3
2.12132 -1 -2.12132
0 1 -3
2.12132 1 -2.12132
-6.80984e-16 0.707107 -3.70711
2.62132 0.707107 -2.62132
-6.80984e-16 0.707107 -3.70711
2.62132 0.707107 -2.62132
0 0 -4
2.82843 0 -2.82843
2.29289 0.707107 0
2.11836 0.707107 0.877452
2.61732 0.92388 0
2.41809 0.92388 1.0016
2.11836 0.707107 0.877452
1.62132 0.707107 1.62132
2.41809 0.92388 1.0016
1.85072 0.92388 1.85072
2.61732 0.92388 0
2.41809 0.92388 1.0016
3 1 0
2.77164 1 1.14805
3 -1 0
2.77164 -1 1.14805
2.61732 -0.92388 0
2.41809 -0.92388 1.0016
2.61732 -0.92388 0
2.41809 -0.92388 1.0016
2.29289 -0.707107 0
2.11836 -0.707107 0.877452
2.41809 -0.92388 1.0016
1.85072 -0.92388 1.85072
2.11836 -0.707107 0.877452
1.62132 -0.707107 1.62132
2 0 0
1.84776 1.22465e-16 0.765367
2.07612 0.382683 0
1.91809 0.382683 0.794497
1.84776 1.22465e-16 0.765367
1.41421 1.22465e-16 1.41421
1.91809 0.382683 0.794497
1.46804 0.382683 1.46804
2.07612 0.382683 0
1.91809 0.382683 0.794497
2.29289 0.707107 0
2.11836 0.707107 0.877452
1.91809 0.382683 0.794497
1.46804 0.382683 1.46804
2.11836 0.707107 0.877452
1.62132 0.707107 1.62132
3.42492 -0.707107 1.41865
2.62132 -0.707107 2.62132
3.12519 -0.92388 1.2945
2.39192 -0.92388 2.39192
3.12519 0.92388 1.2945
2.39192 0.92388 2.39192
3.42492 0.707107 1.41865
2.62132 0.707107 2.62132
2.29289 -0.707107 0
2.11836 -0.707107 0.877452
2.07612 -0.382683 0
1.91809 -0.382683 0.794497
2.11836 -0.707107 0.877452
1.62132 -0.707107 1.62132
1.91809 -0.382683 0.794497
1.46804 -0.382683 1.46804
2.07612 -0.382683 0
1.91809 -0.382683 0.794497
2 0 0
1.84776 1.22465e-16 0.765367
1.91809 -0.382683 0.794497
1.46804 -0.382683 1.46804
1.84776 1.22465e-16 0.765367
1.41421 1.22465e-16 1.41421
2.62132 -0.707107 -2.62132
3.42492 -0.707107 -1.41865
2.39192 -0.92388 -2.39192
3.12519 -0.92388 -1.2945
3.42492 -0.707107 -1.41865
3.70711 -0.707107 0
3.12519 -0.92388 -1.2945
3.38268 -0.92388 0
2.39192 -0.92388 -2.39192
3.12519 -0.92388 -1.2945
2.12132 -1 -2.12132
2.77164 -1 -1.14805
3.12519 -0.92388 -1.2945
3.38268 -0.92388 0
2.77164 -1 -1.14805
3 -1 0
-1.41421 1.22465e-16 -1.41421
-0.765367 1.22465e-16 -1.84776
-1.46804 0.382683 -1.46804
-0.794497 0.382683 -1.91809
-0.765367 1.22465e-16 -1.84776
0 0 -2
-0.794497 0.382683 -1.91809
-3.81377e-16 0.382683 -2.07612
-1.46804 0.382683 -1.46804
-0.794497 0.382683 -1.91809
-1.62132 0.707107 -1.62132
-0.877452 0.707107 -2.11836
-0.794497 0.382683 -1.91809
-3.81377e-16 0.382683 -2.07612
-0.877452 0.707107 -2.11836
-4.21198e-16 0.707107 -2.29289
-1.62132 -0.707107 -1.62132
-0.877452 -0.707107 -2.11836
-1.46804 -0.382683 -1.46804
-0.794497 -0.382683 -1.91809
-0.877452 -0.707107 -2.11836
-4.21198e-16 -0.707107 -2.29289
-0.794497 -0.382683 -1.91809
-3.81377e-16 -0.382683 -2.07612
-1.46804 -0.382683 -1.46804
-0.794497 -0.382683 -1.91809
-1.41421 1.22465e-16 -1.41421
-0.765367 1.22465e-16 -1.84776
-0.794497 -0.382683 -1.91809
-3.81377e-16 -0.382683 -2.07612
-0.765367 1.22465e-16 -1.84776
0 0 -2
2.12132 1 -2.12132
2.77164 1 -1.14805
2.39192 0.92388 -2.39192
3.12519 0.92388 -1.2945
2.77164 1 -1.14805
3 1 0
3.12519 0.92388 -1.2945
3.38268 0.92388 0
2.39192 0.92388 -2.39192
3.12519 0.92388 -1.2945
2.62132 0.707107 -2.62132
3.42492 0.707107 -1.41865
3.12519 0.92388 -1.2945
3.38268 0.92388 0
3.42492 0.707107 -1.41865
3.70711 0.707107 0
3.92388 -0.382683 0
3.62519 -0.382683 1.5016
3.70711 -0.707107 0
3.42492 -0.707107 1.41865
3.70711 0.707107 0
3.42492 0.707107 1.41865
3.92388 0.382683 0
3.62519 0.382683 1.5016
2.82843 0 -2.82843
3.69552 0 -1.53073
2.7746 -0.382683 -2.7746
3.62519 -0.382683 -1.5016
3.69552 0 -1.53073
4 0 0
3.62519 -0.382683 -1.5016
3.92388 -0.382683 0
2.7746 -0.382683 -2.7746
3.62519 -0.382683 -1.5016
2.62132 -0.707107 -2.62132
3.42492 -0.707107 -1.41865
3.62519 -0.382683 -1.5016
3.92388 -0.382683 0
3.42492 -0.707107 -1.41865
3.70711 -0.707107 0
2.62132 0.707107 -2.62132
3.42492 0.707107 -1.41865
2.7746 0.382683 -2.7746
3.62519 0.382683 -1.5016
3.42492 0.707107 -1.41865
3.70711 0.707107 0
3.62519 0.382683 -1.5016
3.92388 0.382683 0
2.7746 0.382683 -2.7746
3.62519 0.382683 -1.5016
2.82843 0 -2.82843
3.69552 0 -1.53073
3.62519 0.382683 -1.5016
3.92388 0.382683 0
3.69552 0 -1.53073
4 0 0
1.41421 1.22465e-16 1.41421
0.765367 1.22465e-16 1.84776
1.46804 0.382683 1.46804
0.794497 0.382683 1.91809
0.765367 1.22465e-16 1.84776
0 0 2
0.794497 0.382683 1.91809
1.27126e-16 0.382683 2.07612
1.46804 0.382683 1.46804
0.794497 0.382683 1.91809
1.62132 0.707107 1.62132
0.877452 0.707107 2.11836
0.794497 0.382683 1.91809
1.27126e-16 0.382683 2.07612
0.877452 0.707107 2.11836
1.40399e-16 0.707107 2.29289
1.62132 -0.707107 1.62132
0.877452 -0.707107 2.11836
1.46804 -0.382683 1.46804
0.794497 -0.382683 1.91809
0.877452 -0.707107 2.11836
1.40399e-16 -0.707107 2.29289
0.794497 -0.382683 1.91809
1.27126e-16 -0.382683 2.07612
1.46804 -0.382683 1.46804
0.794497 -0.382683 1.91809
1.41421 1.22465e-16 1.41421
0.765367 1.22465e-16 1.84776
0.794497 -0.382683 1.91809
1.27126e-16 -0.382683 2.07612
0.765367 1.22465e-16 1.84776
0 0 2
-3.69552 0 1.53073
-4 0 0
-3.62519 -0.382683 1.5016
-3.92388 -0.382683 4.80537e-16
-3.62519 -0.382683 1.5016
-3.92388 -0.382683 4.80537e-16
-3.42492 -0.707107 1.41865
-3.70711 -0.707107 4.5399e-16
-3.42492 0.707107 1.41865
-3.70711 0.707107 4.5399e-16
-3.62519 0.382683 1.5016
-3.92388 0.382683 4.80537e-16
-3.62519 0.382683 1.5016
-3.92388 0.382683 4.80537e-16
-3.69552 0 1.53073
-4 0 0
-1.91809 0.382683 -0.794497
-1.46804 0.382683 -1.46804
-2.11836 0.707107 -0.877452
-1.62132 0.707107 -1.62132
-2.11836 0.707107 -0.877452
-1.62132 0.707107 -1.62132
-2.41809 0.92388 -1.0016
-1.85072 0.92388 -1.85072
-2.41809 0.92388 -1.0016
-1.85072 0.92388 -1.85072
-2.77164 1 -1.14805
-2.12132 1 -2.12132
-2.77164 -1 -1.14805
-2.12132 -1 -2.12132
-2.41809 -0.92388 -1.0016
-1.85072 -0.92388 -1.85072
-2.41809 -0.92388 -1.0016
-1.85072 -0.92388 -1.85072
-2.11836 -0.707107 -0.877452
-1.62132 -0.707107 -1.62132
-2.11836 -0.707107 -0.877452
-1.62132 -0.707107 -1.62132
-1.91809 -0.382683 -0.794497
-1.46804 -0.382683 -1.46804
-3.70711 -0.707107 4.5399e-16
-3.42492 -0.707107 -1.41865
-3.38268 -0.92388 4.14259e-16
-3.12519 -0.92388 -1.2945
-3.42492 -0.707107 -1.41865
-2.62132 -0.707107 -2.62132
-3.12519 -0.92388 -1.2945
-2.39192 -0.92388 -2.39192
-3.12519 -0.92388 -1.2945
-2.39192 -0.92388 -2.39192
-2.77164 -1 -1.14805
-2.12132 -1 -2.12132
-2.77164 1 -1.14805
-2.12132 1 -2.12132
-3.12519 0.92388 -1.2945
-2.39192 0.92388 -2.39192
-3.38268 0.92388 4.14259e-16
-3.12519 0.92388 -1.2945
-3.70711 0.707107 4.5399e-16
-3.42492 0.707107 -1.41865
-3.12519 0.92388 -1.2945
-2.39192 0.92388 -2.39192
-3.42492 0.707107 -1.41865
-2.62132 0.707107 -2.62132
3.38268 -0.92388 0
3.31769 -0.92388 0.659929
3.19509 -0.980785 0
3.1337 -0.980785 0.623331
3.31769 -0.92388 0.659929
3.12519 -0.92388 1.2945
3.1337 -0.980785 0.623331
2.95188 -0.980785 1.22271
3.19509 -0.980785 0
3.1337 -0.980785 0.623331
3 -1 0
2.94236 -1 0.585271
3.1337 -0.980785 0.623331
2.95188 -0.980785 1.22271
2.94236 -1 0.585271
2.77164 -1 1.14805
3 1 0
2.94236 1 0.585271
3.19509 0.980785 0
3.1337 0.980785 0.623331
2.94236 1 0.585271
2.77164 1 1.14805
3.1337 0.980785 0.623331
2.95188 0.980785 1.22271
3.19509 0.980785 0
3.1337 0.980785 0.623331
3.38268 0.92388 0
3.31769 0.92388 0.659929
3.1337 0.980785 0.623331
2.95188 0.980785 1.22271
3.31769 0.92388 0.659929
3.12519 0.92388 1.2945
1.62132 0.707107 1.62132
1.27386 0.707107 1.90647
1.72847 0.83147 1.72847
1.35805 0.83147 2.03247
1.27386 0.707107 1.90647
0.877452 0.707107 2.11836
1.35805 0.83147 2.03247
0.935443 0.83147 2.25836
1.72847 0.83147 1.72847
1.35805 0.83147 2.03247
1.85072 0.92388 1.85072
1.4541 0.92388 2.17622
1.35805 0.83147 2.03247
0.935443 0.83147 2.25836
1.4541 0.92388 2.17622
1.0016 0.92388 2.41809
2.41809 0.92388 1.0016
2.17622 0.92388 1.4541
2.5914 0.980785 1.07339
2.3322 0.980785 1.55832
2.17622 0.92388 1.4541
1.85072 0.92388 1.85072
2.3322 0.980785 1.55832
1.98337 0.980785 1.98337
2.5914 0.980785 1.07339
2.3322 0.980785 1.55832
2.77164 1 1.14805
2.49441 1 1.66671
2.3322 0.980785 1.55832
1.98337 0.980785 1.98337
2.49441 1 1.66671
2.12132 1 2.12132
2.77164 -1 1.14805
2.49441 -1 1.66671
2.5914 -0.980785 1.07339
2.3322 -0.980785 1.55832
2.49441 -1 1.66671
2.12132 -1 2.12132
2.3322 -0.980785 1.55832
1.98337 -0.980785 1.98337
2.5914 -0.980785 1.07339
2.3322 -0.980785 1.55832
[...]
POINT_DATA 3196
SCALARS U double 1
LOOKUP_TABLE default
-0.000177352 3.79062e-05 -0.000263277 7.38829e-05 -0.000263277 7.38827e-05 -0.000177352 3.79063e-05 -0.000236433 0.000849483 -0.000290267 0.000402892 0.000849483 -0.000231726 0.000402892 -0.000110224 0.000402892 -0.000110224 -0.000263277 7.38827e-05 -0.000263277 7.38829e-05 0.000402892 -0.000110225 -0.000290267 0.000402892 -0.000236433 0.000849483 0.000402892 -0.000110225 0.000849483 -0.000231726 -3.96676e-05 9.70912e-06 3.79062e-05 -6.21692e-06 9.70912e-06 0.000811605 -6.21692e-06 0.000780604 3.79062e-05 -6.21692e-06 7.38829e-05 -2.46095e-05 -6.21692e-06 0.000780604 -2.46095e-05 0.000498351 7.38827e-05 -2.46092e-05 3.79063e-05 -6.21711e-06 -2.46092e-05 0.000498347 -6.21711e-06 0.000780605 3.79063e-05 -6.21711e-06 -3.96676e-05 9.70912e-06 -6.21711e-06 0.000780605 9.70912e-06 0.000811605 -0.000231726 8.01047e-05 -0.000110224 3.8684e-05 -0.000110224 3.8684e-05 7.38827e-05 -2.46092e-05 7.38829e-05 -2.46095e-05 -0.000110225 3.86857e-05 -0.000110225 3.86857e-05 -0.000231726 8.01047e-05 0.000780604 0.00128596 0.000639478 0.000854166 0.00128596 0.0014627 0.000854166 0.00147031 0.000639478 0.000854166 0.000498351 0.000614778 0.000498347 0.000614711 0.000639476 0.00085417 0.000639476 0.00085417 0.000780605 0.00128596 0.00085417 0.00147031 0.00128596 0.0014627 0.000811605 0.00138396 0.000796105 0.00144439 0.00138396 0.00193941 0.00144439 0.00179667 0.000796105 0.00144439 0.000780604 0.00128596 0.00144439 0.00179667 0.00128596 0.0014627 0.000356998 0.00135348 0.000562403 0.00135483 0.00056269 0.00135483 0.000357222 0.00135347 0.000780605 0.00128596 0.000796105 0.00144439 0.00128596 0.0014627 0.00144439 0.00179667 0.000796105 0.00144439 0.000811605 0.00138396 0.00144439 0.00179667 0.00138396 0.00193941 3.8684e-05 -2.56823e-05 7.03742e-06 2.74154e-05 -2.56823e-05 0.000256955 2.74154e-05 0.000418449 7.03742e-06 2.74154e-05 -2.46092e-05 0.000236869 2.74154e-05 0.000418449 0.000236869 0.000498347 0.00019475 -7.56256e-06 -0.00017607 8.38528e-05 -7.56256e-06 -3.96676e-05 8.38528e-05 -8.8072e-07 -0.00017607 8.38528e-05 -0.000177352 -6.97227e-05 8.38528e-05 -8.8072e-07 -6.97227e-05 3.79062e-05 -0.000177352 -6.97226e-05 -0.00017607 8.38528e-05 -6.97226e-05 3.79063e-05 8.38528e-05 -8.80667e-07 -0.00017607 8.38528e-05 0.00019475 -7.56256e-06 8.38528e-05 -8.80667e-07 -7.56256e-06 -3.96676e-05 -2.46095e-05 0.000236871 7.03814e-06 2.74046e-05 0.000236871 0.000498351 2.74046e-05 0.000418486 7.03814e-06 2.74046e-05 3.86857e-05 -2.5691e-05 2.74046e-05 0.000418486 -2.5691e-05 0.000256984 9.33188e-05 0.000130607 0.000256955 0.000356998 0.000256984 0.000357222 9.33183e-05 0.000130633 8.01047e-05 -2.54145e-05 5.93943e-05 -2.41587e-05 -2.54145e-05 2.83408e-05 -2.41587e-05 9.33188e-05 5.93943e-05 -2.41587e-05 3.8684e-05 -2.56823e-05 -2.41587e-05 9.33188e-05 -2.56823e-05 0.000256955 3.86857e-05 -2.5691e-05 5.93952e-05 -2.4159e-05 -2.5691e-05 0.000256984 -2.4159e-05 9.33183e-05 5.93952e-05 -2.4159e-05 8.01047e-05 -2.54145e-05 -2.4159e-05 9.33183e-05 -2.54145e-05 2.83408e-05 0.00193941 0.00191232 0.00179667 0.00188564 0.00191232 0.00194024 0.00188564 0.00196355 0.00179667 0.00188564 0.0014627 0.00164422 0.00188564 0.00196355 0.00164422 0.00200782 0.0014627 0.00164422 0.00179667 0.00188564 0.00164422 0.00200782 0.00188564 0.00196355 0.00179667 0.00188564 0.00193941 0.00191232 0.00188564 0.00196355 0.00191232 0.00194024 0.000671582 -0.000236433 0.000700714 -0.00026335 0.000700714 -0.00026335 0.000708975 -0.000290267 0.000708975 -0.000290267 0.000700714 -0.00026335 0.000700714 -0.00026335 0.000671582 -0.000236433 0.00167018 -0.00017607 0.00245889 -0.000177352 0.00245889 -0.000177352 0.0023104 -0.000220314 0.0023104 -0.000220314 0.0025217 -0.000263277 0.0025217 -0.000263277 0.0023104 -0.000220314 0.0023104 -0.000220314 0.00245889 -0.000177352 0.00245889 -0.000177352 0.00167018 -0.00017607 -0.000290267 5.63124e-05 7.51363e-05 0.000242242 5.63124e-05 0.000402892 0.000242242 6.98075e-05 0.000242242 6.98075e-05 0.0025217 -0.000263277 0.0025217 -0.000263277 0.000242242 6.98075e-05 7.5136e-05 0.000242242 -0.000290267 5.63124e-05 0.000242242 6.98075e-05 5.63124e-05 0.000402892 0.000418449 0.000566449 0.000458398 0.000531079 0.000566449 0.000562403 0.000531079 0.000593976 0.000458398 0.000531079 0.000498347 0.000556529 0.000531079 0.000593976 0.000556529 0.000614711 0.000498351 0.000556565 0.000458418 0.000531194 0.000556565 0.000614778 0.000531194 0.000594162 0.000458418 0.000531194 0.000418486 0.000566668 0.000531194 0.000594162 0.000566668 0.00056269 0.0014627 0.00155346 0.0014665 0.00138825 0.00155346 0.00164422 0.00138825 0.00135578 0.0014665 0.00138825 0.00147031 0.00129454 0.00138825 0.00135578 0.00129454 0.00103425 0.000854166 0.00116224 0.000734472 0.00105545 0.00116224 0.00147031 0.00105545 0.00158834 0.000734472 0.00105545 0.000614778 0.000986488 0.00105545 0.00158834 0.000986488 0.00162528 0.000614711 0.000986482 0.000734441 0.00105546 0.000986482 0.00162528 0.00105546 0.00158834 0.000734441 0.00105546 0.00085417 0.00116224 0.00105546 0.00158834 0.00116224 0.00147031 0.00147031 0.00129454 0.0014665 0.00138825 0.00129454 0.00103425 0.00138825 0.00135578 0.0014665 0.00138825 0.0014627 0.00155346 0.00138825 0.00135578 0.00155346 0.00164422 2.83408e-05 2.13881e-05 6.08298e-05 4.65218e-05 2.13881e-05 1.92412e-05 4.65218e-05 5.4888e-05 6.08298e-05 4.65218e-05 9.33188e-05 0.000111963 4.65218e-05 5.4888e-05 0.000111963 0.000130607 9.33183e-05 0.000111976 6.08296e-05 4.65237e-05 0.000111976 0.000130633 4.65237e-05 5.48904e-05 6.08296e-05 4.65237e-05 2.83408e-05 2.13881e-05 4.65237e-05 5.48904e-05 2.13881e-05 1.92412e-05 0.00110742 0.000886627 0.000756726 0.000813718 0.000886627 0.000650566 0.000813718 0.000971246 0.000756726 0.000813718 0.000508731 0.00080584 0.000813718 0.000971246 0.00080584 0.00121716 0.000508911 0.000806092 0.000756685 0.000813629 0.000806092 0.00121711 0.000813629 0.000971263 0.000756685 0.000813629 0.00110742 0.000886639 0.000813629 0.000971263 0.000886639 0.000650564 0.000307242 0.000894636 0.000301288 0.00089658 0.000894636 0.0015739 0.00089658 0.00158817 0.000301288 0.00089658 0.000287599 0.000902621 0.00089658 0.00158817 0.000902621 0.00161383 0.000902621 0.00161383 0.000926122 0.00162753 0.000926122 0.00162753 0.000923809 0.00162588 0.000923809 0.00162588 0.000890707 0.00159252 0.000307204 0.000890707 0.00034246 0.000863268 0.000890707 0.00159252 0.000863268 0.0015136 0.000256955 0.000306976 0.000337702 0.000544988 0.000306976 0.000356998 0.000544988 0.000459701 0.000337702 0.000544988 0.000418449 0.000566449 0.000544988 0.000459701 0.000566449 0.000562403 0.000562403 0.000958619 0.000593976 0.000945794 0.000958619 0.00135483 0.000945794 0.0015216 0.000593976 0.000945794 0.000614711 0.000986482 0.000945794 0.0015216 0.000986482 0.00162528 0.000614778 0.000986488 0.000594162 0.000945846 0.000986488 0.00162528 0.000945846 0.0015216 0.000594162 0.000945846 0.00056269 0.000958762 0.000945846 0.0015216 0.000958762 0.00135483 0.000418486 0.000566668 0.000337735 0.000545253 0.000566668 0.00056269 0.000545253 0.000459956 0.000337735 0.000545253 0.000256984 0.000307103 0.000545253 0.000459956 0.000307103 0.000357222 0.000863268 0.0015136 0.000835391 0.00138416 0.000388397 0.000835391 0.000508911 0.000806092 0.000835391 0.00138416 0.000806092 0.00121711 0.000508731 0.00080584 0.000387902 0.000833003 0.00080584 0.00121716 0.000833003 0.0013847 0.000387902 0.000833003 0.000340189 0.000862925 0.000833003 0.0013847 0.000862925 0.00151365 0.000340189 0.000862925 0.000306961 0.00089053 0.000862925 0.00151365 0.00089053 0.00159256 0.00089053 0.00159256 0.000923839 0.00162588 0.000923839 0.00162588 0.000926118 0.00162753 0.000926118 0.00162753 0.000902724 0.0016138 0.000287139 0.000902724 0.000300853 0.000896681 0.000902724 0.0016138 0.000896681 0.00158814 0.000300853 0.000896681 0.000307242 0.000894636 0.000896681 0.00158814 0.000894636 0.0015739 0.00194024 0.0015686 0.00195189 0.00156332 0.0015686 0.00167443 0.00156332 0.00167736 0.00195189 0.00156332 0.00196355 0.00155298 0.00156332 0.00167736 0.00155298 0.00168921 7.62241e-05 0.00063791 0.000284317 0.000743242 0.00063791 0.00205257 0.000743242 0.00194226 0.000284317 0.000743242 0.000656332 0.0011386 0.000743242 0.00194226 0.0011386 0.0017753 0.000656332 0.0011386 0.000284317 0.000743242 0.0011386 0.0017753 0.000743242 0.00194226 0.000284317 0.000743242 7.62241e-05 0.00063791 0.000743242 0.00194226 0.00063791 0.00205257 0.00167443 0.00110378 0.00167736 0.00111025 0.00110378 0.00026052 0.00111025 0.000237465 0.00167736 0.00111025 0.00168921 0.00111611 0.00111025 0.000237465 0.00111611 0.000203596 0.0015739 0.00115075 0.00158817 0.00115934 0.00115075 0.000671582 0.00115934 0.000686148 0.00158817 0.00115934 0.00161383 0.00117838 0.00115934 0.000686148 0.00117838 0.000700714 0.00161383 0.00117838 0.00162753 0.00119599 0.00117838 0.000700714 0.00119599 0.000704845 0.00162753 0.00119599 0.00162588 0.00119167 0.00119599 0.000704845 0.00119167 0.000708975 0.00164422 0.00182602 0.00135578 0.00163532 0.00182602 0.00200782 0.00163532 0.00202017 0.00135578 0.00163532 0.00103425 0.00133711 0.00147031 0.00129454 0.00158834 0.00127049 0.00129454 0.00103425 0.00127049 0.000771183 0.00158834 0.00127049 0.00162528 0.00127677 0.00127049 0.000771183 0.00127677 0.000689173 0.00103425 0.00133711 0.000771183 0.00103105 0.000237465 0.000280933 0.000203596 0.000257389 0.000280933 0.000284317 0.000257389 0.000656332 0.000203596 0.000257389 0.000170073 0.000242261 0.000257389 0.000656332 0.000242261 0.000851578 0.00162528 0.00127677 0.00158834 0.00127049 0.00127677 0.000689173 0.00127049 0.000771183 0.00158834 0.00127049 0.00147031 0.00129454 0.00127049 0.000771183 0.00129454 0.00103425 0.000197743 0.00028435 0.000360404 0.000380793 0.000360404 0.000380793 0.000650566 0.000605834 0.000650566 0.000605834 0.000971246 0.000983971 0.000771183 0.00103105 0.00103425 0.00133711 1.92412e-05 0.000567605 5.4888e-05 0.000568064 0.000567605 0.00191341 0.000568064 0.00187918 5.4888e-05 0.000568064 0.000130607 0.000580024 0.000568064 0.00187918 0.000580024 0.00178229 0.000130607 0.000580024 0.000243802 0.000660157 0.000580024 0.00178229 0.000660157 0.00158333 0.000243802 0.000660157 0.000356998 0.000855238 0.000660157 0.00158333 0.000855238 0.00135348 0.00135348 0.00126589 0.00135416 0.00123513 0.00126589 0.000861176 0.00123513 0.00093301 0.00135416 0.00123513 0.00135483 0.00125759 0.00123513 0.00093301 0.00125759 0.000870844 0.00135483 0.00125759 0.00135415 0.00123513 0.00125759 0.000870844 0.00123513 0.000933012 0.00135415 0.00123513 0.00135347 0.0012659 0.00123513 0.000933012 0.0012659 0.000861169 0.000357222 0.000855348 0.000243928 0.000660184 0.000855348 0.00135347 0.000660184 0.00158334 0.000243928 0.000660184 0.000130633 0.000580029 0.000660184 0.00158334 0.000580029 0.00178228 0.00103425 0.00133711 0.00135578 0.00163532 0.00135578 0.00163532 0.00164422 0.00182602 0.00163532 0.00202017 0.00182602 0.00200782 0.000130633 0.000580029 5.48904e-05 0.000568065 0.000580029 0.00178228 0.000568065 0.00187919 5.48904e-05 0.000568065 1.92412e-05 0.000567605 0.000568065 0.00187919 0.000567605 0.00191341 0.00135483 0.00125759 0.0015216 0.00127116 0.00125759 0.000870844 0.00127116 0.000750085 0.0015216 0.00127116 0.00162528 0.00127677 0.00127116 0.000750085 0.00127677 0.000689173 0.00162528 0.00127677 0.0015216 0.00127116 0.00127677 0.000689173 0.00127116 0.000750085 0.0015216 0.00127116 0.00135483 0.00125759 0.00127116 0.000750085 0.00125759 0.000870844 0.00196355 0.00155298 0.00198568 0.00153641 0.00155298 0.00168921 0.00153641 0.0016988 0.00198568 0.00153641 0.00200782 0.00150994 0.00153641 0.0016988 0.00150994 0.00164456 0.00162588 0.00119167 0.00159252 0.00116476 0.00119167 0.000708975 0.00116476 0.000697485 0.00159252 0.00116476 0.0015136 0.00118792 0.00116476 0.000697485 0.00118792 0.000824311 0.00168921 0.00111611 0.0016988 0.00111505 0.00111611 0.000203596 0.00111505 0.000170073 0.0016988 0.00111505 0.00164456 0.00108608 0.00111505 0.000170073 0.00108608 0.000197743 0.000708975 0.000209354 0.000697485 0.000159505 0.000209354 -0.000290267 0.000159505 -0.000107565 0.000697485 0.000159505 0.000824311 0.000170192 0.000159505 -0.000107565 0.000170192 7.51363e-05 0.00200782 0.00150994 0.00202017 0.00146907 0.00150994 0.00164456 0.00146907 0.00144434 0.00202017 0.00146907 0.0020201 0.00142804 0.00146907 0.00144434 0.00142804 0.00110742 0.0015136 0.00118792 0.00138416 0.0013156 0.00118792 0.000824311 0.0013156 0.00116539 0.00138416 0.0013156 0.00121711 0.00130286 0.0013156 0.00116539 0.00130286 0.00140662 0.00164456 0.00108608 0.00144434 0.000999377 0.00108608 0.000197743 0.000999377 0.000360404 0.00144434 0.000999377 0.00110742 0.000886627 0.000999377 0.000360404 0.000886627 0.000650566 0.000824311 0.000170192 0.00116539 0.000523205 0.000170192 7.51363e-05 0.000523205 -0.000367908 0.00116539 0.000523205 0.00140662 0.00109619 0.000523205 -0.000367908 0.00109619 -9.62314e-05 0.00128859 0.000440624 0.00128708 0.000469027 0.00128708 0.000469027 0.00129732 0.000557198 0.00178229 0.00129732 0.00158333 0.00127937 0.00129732 0.000557198 0.00127937 0.000711102 0.00158333 0.00127937 0.00135348 0.00126589 0.00127937 0.000711102 0.00126589 0.000861176 0.00135347 0.0012659 0.00158334 0.00127937 0.0012659 0.000861169 0.00127937 0.000711092 0.00158334 0.00127937 0.00178228 0.00129733 0.00127937 0.000711092 0.00129733 0.000557158 0.00129733 0.000557158 0.00128709 0.000469076 0.00128709 0.000469076 0.00128859 0.000440624 0.000311969 0.00213608 0.000255773 0.00216216 0.000255773 0.00216216 0.000244579 0.00216941 0.0020201 0.00142804 0.00202393 0.00141111 0.00142804 0.00110742 0.00141111 0.000756726 0.00202393 0.00141111 0.0020216 0.00141906 0.00141111 0.000756726 0.00141906 0.000508731 0.00202161 0.00141902 0.00202392 0.00141112 0.00141902 0.000508911 0.00141112 0.000756685 0.00202392 0.00141112 0.0020201 0.00142804 0.00141112 0.000756685 0.00142804 0.00110742 0.0020201 0.00142804 0.00202017 0.00146907 0.00142804 0.00110742 0.00146907 0.00144434 0.00202017 0.00146907 0.00200782 0.00150994 0.00146907 0.00144434 0.00150994 0.00164456 0.00110742 0.000886639 0.00144434 0.000999378 0.000886639 0.000650564 0.000999378 0.000360404 0.00144434 0.000999378 0.00164456 0.00108608 0.000999378 0.000360404 0.00108608 0.000197743 0.00200782 0.00150994 0.00198568 0.00153641 0.00150994 0.00164456 0.00153641 0.0016988 0.00198568 0.00153641 0.00196355 0.00155298 0.00153641 0.0016988 0.00155298 0.00168921 0.00164456 0.00108608 0.0016988 0.00111505 0.00108608 0.000197743 0.00111505 0.000170073 0.0016988 0.00111505 0.00168921 0.00111611 0.00111505 0.000170073 0.00111611 0.000203596 0.00196355 0.00155298 0.00195189 0.00156332 0.00155298 0.00168921 0.00156332 0.00167736 0.00195189 0.00156332 0.00194024 0.0015686 0.00156332 0.00167736 0.0015686 0.00167443 0.00168921 0.00111611 0.00167736 0.00111025 0.00111611 0.000203596 0.00111025 0.000237465 0.00167736 0.00111025 0.00167443 0.00110378 0.00111025 0.000237465 0.00110378 0.00026052 0.00216941 0.00148996 0.00215837 0.00147997 0.00148996 0.000307242 0.00147997 0.000301288 0.00215837 0.00147997 0.00213757 0.00145838 0.00147997 0.000301288 0.00145838 0.000287599 0.00213757 0.00145838 0.00210886 0.00142947 0.00145838 0.000287599 0.00142947 0.000293684 0.00210886 0.00142947 0.00207922 0.00141198 0.00142947 0.000293684 0.00141198 0.000300446 0.00207922 0.00141198 0.00205658 0.0014127 0.00141198 0.000300446 0.0014127 0.000307204 0.00205658 0.0014127 0.00203974 0.0014183 0.0014127 0.000307204 0.0014183 0.00034246 0.00203974 0.0014183 0.00202587 0.00142443 0.0014183 0.00034246 0.00142443 0.000388397 0.00202587 0.00142443 0.00202161 0.00141902 0.00142443 0.000388397 0.00141902 0.000508911 0.0020216 0.00141906 0.00202586 0.00142451 0.00141906 0.000508731 0.00142451 0.000387902 0.00202586 0.00142451 0.00203959 0.00141882 0.00142451 0.000387902 0.00141882 0.000340189 0.00203959 0.00141882 0.00205657 0.00141276 0.00141882 0.000340189 0.00141276 0.000306961 0.00205657 0.00141276 0.00207919 0.00141193 0.00141276 0.000306961 0.00141193 0.000300528 0.00207919 0.00141193 0.0021091 0.00142951 0.00141193 0.000300528 0.00142951 0.000293674 0.0021091 0.00142951 0.00213608 0.00146048 0.00142951 0.000293674 0.00146048 0.000287139 0.00213608 0.00146048 0.00216216 0.00148216 0.00146048 0.000287139 0.00148216 0.000300853 0.00216216 0.00148216 0.00216941 0.00148996 0.00148216 0.000300853 0.00148996 0.000307242 0.000971263 0.000983967 0.000650564 0.000605834 0.000650564 0.000605834 0.000360404 0.000380793 0.000360404 0.000380793 0.000197743 0.00028435 0.000170073 0.000242261 0.000203596 0.00025739 0.000242261 0.000851578 0.00025739 0.000656332 0.000203596 0.00025739 0.000237465 0.000280933 0.00025739 0.000656332 0.000280933 0.000284317 0.00121716 0.00130285 0.0013847 0.00131548 0.00130285 0.00140662 0.00131548 0.00116542 0.0013847 0.00131548 0.00151365 0.00118791 0.00131548 0.00116542 0.00118791 0.00082431 0.00140662 0.00109619 0.00116542 0.0005232 0.00109619 -9.62315e-05 0.0005232 -0.000367907 0.00116542 0.0005232 0.00082431 0.000170193 0.0005232 -0.000367907 0.000170193 7.5136e-05 0.00151365 0.00118791 0.00159256 0.00116475 0.00118791 0.00082431 0.00116475 0.000697488 0.00159256 0.00116475 0.00162588 0.00119167 0.00116475 0.000697488 0.00119167 0.000708975 0.00082431 0.000170193 0.000697488 0.000159504 0.000170193 7.5136e-05 0.000159504 -0.000107566 0.000697488 0.000159504 0.000708975 0.000209354 0.000159504 -0.000107566 0.000209354 -0.000290267 0.00162588 0.00119167 0.00162753 0.00119599 0.00119167 0.000708975 0.00119599 0.000704844 0.00162753 0.00119599 0.0016138 0.00117838 0.00119599 0.000704844 0.00117838 0.000700714 0.0016138 0.00117838 0.00158814 0.00115935 0.00117838 0.000700714 0.00115935 0.000686148 0.00158814 0.00115935 0.0015739 0.00115075 0.00115935 0.000686148 0.00115075 0.000671582 0.00205257 0.00264814 0.00194226 0.00267991 0.00264814 0.000769081 0.00267991 0.000543719 0.00194226 0.00267991 0.0017753 0.00233771 0.00267991 0.000543719 0.00233771 0.00167018 0.000769081 0.000175861 0.000543719 0.000280903 0.000175861 0.00019475 0.000280903 9.34001e-06 0.000543719 0.000280903 0.00167018 0.000747057 0.000280903 9.34001e-06 0.000747057 -0.00017607 0.0017753 0.00233771 0.00157341 0.00214351 0.00233771 0.00167018 0.00214351 0.00206454 0.00157341 0.00214351 0.00126818 0.00193393 0.00214351 0.00206454 0.00193393 0.00245889 0.00126818 0.00193393 0.000727446 0.00183095 0.00193393 0.00245889 0.00183095 0.00238464 0.000727446 0.00183095 0.000273214 0.00176369 0.00183095 0.00238464 0.00176369 0.0023104 0.000273214 0.00176369 0.000131047 0.00170832 0.00176369 0.0023104 0.00170832 0.00241605 0.000131047 0.00170832 -9.62315e-05 0.0018132 0.00170832 0.00241605 0.0018132 0.0025217 -9.62314e-05 0.0018132 0.000131047 0.00170832 0.0018132 0.0025217 0.00170832 0.00241605 0.000131047 0.00170832 0.000273214 0.00176369 0.00170832 0.00241605 0.00176369 0.0023104 0.000273214 0.00176369 0.000727446 0.00183095 0.00176369 0.0023104 0.00183095 0.00238464 0.000727446 0.00183095 0.00126818 0.00193393 0.00183095 0.00238464 0.00193393 0.00245889 0.00126818 0.00193393 0.00157341 0.00214351 0.00193393 0.00245889 0.00214351 0.00206454 0.00157341 0.00214351 0.0017753 0.00233771 0.00214351 0.00206454 0.00233771 0.00167018 0.0017753 0.00233771 0.00194226 0.00267991 0.00233771 0.00167018 0.00267991 0.000543719 0.00194226 0.00267991 0.00205257 0.00264814 0.00267991 0.000543719 0.00264814 0.000769081 0.00167018 0.000747057 0.000543719 0.000280903 0.000747057 -0.00017607 0.000280903 9.34002e-06 0.000543719 0.000280903 0.000769081 0.000175861 0.000280903 9.34002e-06 0.000175861 0.00019475 7.51363e-05 0.000158689 -0.000367908 0.0019432 0.000158689 0.000242242 0.0019432 0.00138197 -0.000367908 0.0019432 -9.62314e-05 0.0018132 0.0019432 0.00138197 0.0018132 0.0025217 -9.62315e-05 0.0018132 -0.000367907 0.0019432 0.0018132 0.0025217 0.0019432 0.00138197 -0.000367907 0.0019432 7.5136e-05 0.000158689 0.0019432 0.00138197 0.000158689 0.000242242 0.