# vtk DataFile Version 3.0
#This file was generated by the deal.II library on 2023/2/24 at 14:49:32
ASCII
DATASET UNSTRUCTURED_GRID

FIELD FieldData 2
CYCLE 1 1 int
20
TIME 1 1 double
0.04
POINTS 21352 double
0 0 2
-0.765367 1.22465e-16 1.84776
1.27126e-16 0.382683 2.07612
-0.794497 0.382683 1.91809
-0.765367 1.22465e-16 1.84776
-1.41421 1.22465e-16 1.41421
-0.794497 0.382683 1.91809
-1.46804 0.382683 1.46804
-0.794497 0.382683 1.91809
-1.46804 0.382683 1.46804
-0.877452 0.707107 2.11836
-1.62132 0.707107 1.62132
-1.41421 1.22465e-16 1.41421
-1.84776 1.22465e-16 0.765367
-1.46804 0.382683 1.46804
-1.91809 0.382683 0.794497
-1.84776 1.22465e-16 0.765367
-2 0 0
-1.91809 0.382683 0.794497
-2.07612 0.382683 2.54251e-16
-1.46804 0.382683 1.46804
-1.91809 0.382683 0.794497
-1.62132 0.707107 1.62132
-2.11836 0.707107 0.877452
-1.91809 0.382683 0.794497
-2.07612 0.382683 2.54251e-16
-2.11836 0.707107 0.877452
-2.29289 0.707107 2.80798e-16
-0.877452 0.707107 2.11836
-1.62132 0.707107 1.62132
-1.0016 0.92388 2.41809
-1.85072 0.92388 1.85072
-1.0016 0.92388 2.41809
-1.85072 0.92388 1.85072
-1.14805 1 2.77164
-2.12132 1 2.12132
-1.62132 0.707107 1.62132
-2.11836 0.707107 0.877452
-1.85072 0.92388 1.85072
-2.41809 0.92388 1.0016
-2.11836 0.707107 0.877452
-2.29289 0.707107 2.80798e-16
-2.41809 0.92388 1.0016
-2.61732 0.92388 3.20529e-16
-1.85072 0.92388 1.85072
-2.41809 0.92388 1.0016
-2.12132 1 2.12132
-2.77164 1 1.14805
-2.41809 0.92388 1.0016
-2.61732 0.92388 3.20529e-16
-2.77164 1 1.14805
-3 1 0
-1.14805 -1 2.77164
-2.12132 -1 2.12132
-1.0016 -0.92388 2.41809
-1.85072 -0.92388 1.85072
-1.0016 -0.92388 2.41809
-1.85072 -0.92388 1.85072
-0.877452 -0.707107 2.11836
-1.62132 -0.707107 1.62132
-2.12132 -1 2.12132
-2.77164 -1 1.14805
-1.85072 -0.92388 1.85072
-2.41809 -0.92388 1.0016
-2.77164 -1 1.14805
-3 -1 0
-2.41809 -0.92388 1.0016
-2.61732 -0.92388 3.20529e-16
-1.85072 -0.92388 1.85072
-2.41809 -0.92388 1.0016
-1.62132 -0.707107 1.62132
-2.11836 -0.707107 0.877452
-2.41809 -0.92388 1.0016
-2.61732 -0.92388 3.20529e-16
-2.11836 -0.707107 0.877452
-2.29289 -0.707107 2.80798e-16
-0.877452 -0.707107 2.11836
-1.62132 -0.707107 1.62132
-0.794497 -0.382683 1.91809
-1.46804 -0.382683 1.46804
1.27126e-16 -0.382683 2.07612
-0.794497 -0.382683 1.91809
0 0 2
-0.765367 1.22465e-16 1.84776
-0.794497 -0.382683 1.91809
-1.46804 -0.382683 1.46804
-0.765367 1.22465e-16 1.84776
-1.41421 1.22465e-16 1.41421
-1.62132 -0.707107 1.62132
-2.11836 -0.707107 0.877452
-1.46804 -0.382683 1.46804
-1.91809 -0.382683 0.794497
-2.11836 -0.707107 0.877452
-2.29289 -0.707107 2.80798e-16
-1.91809 -0.382683 0.794497
-2.07612 -0.382683 2.54251e-16
-1.46804 -0.382683 1.46804
-1.91809 -0.382683 0.794497
-1.41421 1.22465e-16 1.41421
-1.84776 1.22465e-16 0.765367
-1.91809 -0.382683 0.794497
-2.07612 -0.382683 2.54251e-16
-1.84776 1.22465e-16 0.765367
-2 0 0
-1.53073 0 3.69552
-2.82843 0 2.82843
-1.5016 -0.382683 3.62519
-2.7746 -0.382683 2.7746
-1.5016 -0.382683 3.62519
-2.7746 -0.382683 2.7746
-1.41865 -0.707107 3.42492
-2.62132 -0.707107 2.62132
-2.82843 0 2.82843
-3.69552 0 1.53073
-2.7746 -0.382683 2.7746
-3.62519 -0.382683 1.5016
-3.69552 0 1.53073
-4 0 0
-3.62519 -0.382683 1.5016
-3.92388 -0.382683 4.80537e-16
-2.7746 -0.382683 2.7746
-3.62519 -0.382683 1.5016
-2.62132 -0.707107 2.62132
-3.42492 -0.707107 1.41865
-3.62519 -0.382683 1.5016
-3.92388 -0.382683 4.80537e-16
-3.42492 -0.707107 1.41865
-3.70711 -0.707107 4.5399e-16
-1.41865 -0.707107 3.42492
-2.62132 -0.707107 2.62132
-1.2945 -0.92388 3.12519
-2.39192 -0.92388 2.39192
-1.2945 -0.92388 3.12519
-2.39192 -0.92388 2.39192
-1.14805 -1 2.77164
-2.12132 -1 2.12132
-2.62132 -0.707107 2.62132
-3.42492 -0.707107 1.41865
-2.39192 -0.92388 2.39192
-3.12519 -0.92388 1.2945
-3.42492 -0.707107 1.41865
-3.70711 -0.707107 4.5399e-16
-3.12519 -0.92388 1.2945
-3.38268 -0.92388 4.14259e-16
-2.39192 -0.92388 2.39192
-3.12519 -0.92388 1.2945
-2.12132 -1 2.12132
-2.77164 -1 1.14805
-3.12519 -0.92388 1.2945
-3.38268 -0.92388 4.14259e-16
-2.77164 -1 1.14805
-3 -1 0
-1.14805 1 2.77164
-2.12132 1 2.12132
-1.2945 0.92388 3.12519
-2.39192 0.92388 2.39192
-1.2945 0.92388 3.12519
-2.39192 0.92388 2.39192
-1.41865 0.707107 3.42492
-2.62132 0.707107 2.62132
-2.12132 1 2.12132
-2.77164 1 1.14805
-2.39192 0.92388 2.39192
-3.12519 0.92388 1.2945
-2.77164 1 1.14805
-3 1 0
-3.12519 0.92388 1.2945
-3.38268 0.92388 4.14259e-16
-2.39192 0.92388 2.39192
-3.12519 0.92388 1.2945
-2.62132 0.707107 2.62132
-3.42492 0.707107 1.41865
-3.12519 0.92388 1.2945
-3.38268 0.92388 4.14259e-16
-3.42492 0.707107 1.41865
-3.70711 0.707107 4.5399e-16
-1.41865 0.707107 3.42492
-2.62132 0.707107 2.62132
-1.5016 0.382683 3.62519
-2.7746 0.382683 2.7746
-1.5016 0.382683 3.62519
-2.7746 0.382683 2.7746
-1.53073 0 3.69552
-2.82843 0 2.82843
-2.62132 0.707107 2.62132
-3.42492 0.707107 1.41865
-2.7746 0.382683 2.7746
-3.62519 0.382683 1.5016
-3.42492 0.707107 1.41865
-3.70711 0.707107 4.5399e-16
-3.62519 0.382683 1.5016
-3.92388 0.382683 4.80537e-16
-2.7746 0.382683 2.7746
-3.62519 0.382683 1.5016
-2.82843 0 2.82843
-3.69552 0 1.53073
-3.62519 0.382683 1.5016
-3.92388 0.382683 4.80537e-16
-3.69552 0 1.53073
-4 0 0
-2 0 0
-1.84776 1.22465e-16 -0.765367
-2.07612 0.382683 2.54251e-16
-1.91809 0.382683 -0.794497
-1.84776 1.22465e-16 -0.765367
-1.41421 1.22465e-16 -1.41421
-1.91809 0.382683 -0.794497
-1.46804 0.382683 -1.46804
-2.07612 0.382683 2.54251e-16
-1.91809 0.382683 -0.794497
-2.29289 0.707107 2.80798e-16
-2.11836 0.707107 -0.877452
-1.91809 0.382683 -0.794497
-1.46804 0.382683 -1.46804
-2.11836 0.707107 -0.877452
-1.62132 0.707107 -1.62132
-1.41421 1.22465e-16 -1.41421
-0.765367 1.22465e-16 -1.84776
-1.46804 0.382683 -1.46804
-0.794497 0.382683 -1.91809
-0.765367 1.22465e-16 -1.84776
0 0 -2
-0.794497 0.382683 -1.91809
-3.81377e-16 0.382683 -2.07612
-1.46804 0.382683 -1.46804
-0.794497 0.382683 -1.91809
-1.62132 0.707107 -1.62132
-0.877452 0.707107 -2.11836
-0.794497 0.382683 -1.91809
-3.81377e-16 0.382683 -2.07612
-0.877452 0.707107 -2.11836
-4.21198e-16 0.707107 -2.29289
-2.29289 0.707107 2.80798e-16
-2.11836 0.707107 -0.877452
-2.61732 0.92388 3.20529e-16
-2.41809 0.92388 -1.0016
-2.11836 0.707107 -0.877452
-1.62132 0.707107 -1.62132
-2.41809 0.92388 -1.0016
-1.85072 0.92388 -1.85072
-2.61732 0.92388 3.20529e-16
-2.41809 0.92388 -1.0016
-3 1 0
-2.77164 1 -1.14805
-2.41809 0.92388 -1.0016
-1.85072 0.92388 -1.85072
-2.77164 1 -1.14805
-2.12132 1 -2.12132
-1.62132 0.707107 -1.62132
-0.877452 0.707107 -2.11836
-1.85072 0.92388 -1.85072
-1.0016 0.92388 -2.41809
-0.877452 0.707107 -2.11836
-4.21198e-16 0.707107 -2.29289
-1.0016 0.92388 -2.41809
-4.80793e-16 0.92388 -2.61732
-1.85072 0.92388 -1.85072
-1.0016 0.92388 -2.41809
-2.12132 1 -2.12132
-1.14805 1 -2.77164
-1.0016 0.92388 -2.41809
-4.80793e-16 0.92388 -2.61732
-1.14805 1 -2.77164
0 1 -3
-3 -1 0
-2.77164 -1 -1.14805
-2.61732 -0.92388 3.20529e-16
-2.41809 -0.92388 -1.0016
-2.77164 -1 -1.14805
-2.12132 -1 -2.12132
-2.41809 -0.92388 -1.0016
-1.85072 -0.92388 -1.85072
-2.61732 -0.92388 3.20529e-16
-2.41809 -0.92388 -1.0016
-2.29289 -0.707107 2.80798e-16
-2.11836 -0.707107 -0.877452
-2.41809 -0.92388 -1.0016
-1.85072 -0.92388 -1.85072
-2.11836 -0.707107 -0.877452
-1.62132 -0.707107 -1.62132
-2.12132 -1 -2.12132
-1.14805 -1 -2.77164
-1.85072 -0.92388 -1.85072
-1.0016 -0.92388 -2.41809
-1.14805 -1 -2.77164
0 -1 -3
-1.0016 -0.92388 -2.41809
-4.80793e-16 -0.92388 -2.61732
-1.85072 -0.92388 -1.85072
-1.0016 -0.92388 -2.41809
-1.62132 -0.707107 -1.62132
-0.877452 -0.707107 -2.11836
-1.0016 -0.92388 -2.41809
-4.80793e-16 -0.92388 -2.61732
-0.877452 -0.707107 -2.11836
-4.21198e-16 -0.707107 -2.29289
-2.29289 -0.707107 2.80798e-16
-2.11836 -0.707107 -0.877452
-2.07612 -0.382683 2.54251e-16
-1.91809 -0.382683 -0.794497
-2.11836 -0.707107 -0.877452
-1.62132 -0.707107 -1.62132
-1.91809 -0.382683 -0.794497
-1.46804 -0.382683 -1.46804
-2.07612 -0.382683 2.54251e-16
-1.91809 -0.382683 -0.794497
-2 0 0
-1.84776 1.22465e-16 -0.765367
-1.91809 -0.382683 -0.794497
-1.46804 -0.382683 -1.46804
-1.84776 1.22465e-16 -0.765367
-1.41421 1.22465e-16 -1.41421
-1.62132 -0.707107 -1.62132
-0.877452 -0.707107 -2.11836
-1.46804 -0.382683 -1.46804
-0.794497 -0.382683 -1.91809
-0.877452 -0.707107 -2.11836
-4.21198e-16 -0.707107 -2.29289
-0.794497 -0.382683 -1.91809
-3.81377e-16 -0.382683 -2.07612
-1.46804 -0.382683 -1.46804
-0.794497 -0.382683 -1.91809
-1.41421 1.22465e-16 -1.41421
-0.765367 1.22465e-16 -1.84776
-0.794497 -0.382683 -1.91809
-3.81377e-16 -0.382683 -2.07612
-0.765367 1.22465e-16 -1.84776
0 0 -2
-4 0 0
-3.69552 0 -1.53073
-3.92388 -0.382683 4.80537e-16
-3.62519 -0.382683 -1.5016
-3.69552 0 -1.53073
-2.82843 0 -2.82843
-3.62519 -0.382683 -1.5016
-2.7746 -0.382683 -2.7746
-3.92388 -0.382683 4.80537e-16
-3.62519 -0.382683 -1.5016
-3.70711 -0.707107 4.5399e-16
-3.42492 -0.707107 -1.41865
-3.62519 -0.382683 -1.5016
-2.7746 -0.382683 -2.7746
-3.42492 -0.707107 -1.41865
-2.62132 -0.707107 -2.62132
-2.82843 0 -2.82843
-1.53073 0 -3.69552
-2.7746 -0.382683 -2.7746
-1.5016 -0.382683 -3.62519
-1.53073 0 -3.69552
0 0 -4
-1.5016 -0.382683 -3.62519
-7.20805e-16 -0.382683 -3.92388
-2.7746 -0.382683 -2.7746
-1.5016 -0.382683 -3.62519
-2.62132 -0.707107 -2.62132
-1.41865 -0.707107 -3.42492
-1.5016 -0.382683 -3.62519
-7.20805e-16 -0.382683 -3.92388
-1.41865 -0.707107 -3.42492
-6.80984e-16 -0.707107 -3.70711
-3.70711 -0.707107 4.5399e-16
-3.42492 -0.707107 -1.41865
-3.38268 -0.92388 4.14259e-16
-3.12519 -0.92388 -1.2945
-3.42492 -0.707107 -1.41865
-2.62132 -0.707107 -2.62132
-3.12519 -0.92388 -1.2945
-2.39192 -0.92388 -2.39192
-3.38268 -0.92388 4.14259e-16
-3.12519 -0.92388 -1.2945
-3 -1 0
-2.77164 -1 -1.14805
-3.12519 -0.92388 -1.2945
-2.39192 -0.92388 -2.39192
-2.77164 -1 -1.14805
-2.12132 -1 -2.12132
-2.62132 -0.707107 -2.62132
-1.41865 -0.707107 -3.42492
-2.39192 -0.92388 -2.39192
-1.2945 -0.92388 -3.12519
-1.41865 -0.707107 -3.42492
-6.80984e-16 -0.707107 -3.70711
-1.2945 -0.92388 -3.12519
-6.21389e-16 -0.92388 -3.38268
[...]
POINT_DATA 21352
SCALARS U double 1
LOOKUP_TABLE default
-5.36662e-06 1.6206e-06 -7.02156e-06 1.49154e-06 1.6206e-06 -4.33887e-07 1.49154e-06 -4.05889e-07 1.49154e-06 -4.05889e-07 -1.03015e-06 2.10839e-07 -4.33887e-07 1.1508e-07 -4.05889e-07 1.09095e-07 1.1508e-07 -3.03785e-08 1.09095e-07 -2.91135e-08 -4.05889e-07 1.09095e-07 2.10839e-07 -4.176e-08 1.09095e-07 -2.91135e-08 -4.176e-08 7.91015e-09 -1.03015e-06 2.10839e-07 -9.85394e-07 1.89344e-07 -9.85394e-07 1.89344e-07 -5.57695e-07 1.40484e-07 2.10839e-07 -4.176e-08 1.89344e-07 -3.32815e-08 -4.176e-08 7.91015e-09 -3.32815e-08 4.8458e-09 1.89344e-07 -3.32815e-08 1.40484e-07 -3.53849e-08 -3.32815e-08 4.8458e-09 -3.53849e-08 8.96078e-09 -5.57701e-07 1.40521e-07 -9.85385e-07 1.89363e-07 -9.85385e-07 1.89363e-07 -1.03015e-06 2.10831e-07 1.40521e-07 -3.5403e-08 1.89363e-07 -3.32932e-08 -3.5403e-08 8.96849e-09 -3.32932e-08 4.90741e-09 1.89363e-07 -3.32932e-08 2.10831e-07 -4.1753e-08 -3.32932e-08 4.90741e-09 -4.1753e-08 7.91883e-09 -1.03015e-06 2.10831e-07 1.49156e-06 -4.05895e-07 -7.02158e-06 1.49156e-06 -5.36662e-06 1.6206e-06 1.49156e-06 -4.05895e-07 1.6206e-06 -4.33887e-07 2.10831e-07 -4.1753e-08 -4.05895e-07 1.09086e-07 -4.1753e-08 7.91883e-09 1.09086e-07 -2.91149e-08 -4.05895e-07 1.09086e-07 -4.33887e-07 1.1508e-07 1.09086e-07 -2.91149e-08 1.1508e-07 -3.03785e-08 -5.02644e-07 1.35534e-07 -3.78295e-07 1.0266e-07 -3.78295e-07 1.0266e-07 -3.41997e-07 9.60101e-08 1.35534e-07 -3.65098e-08 1.0266e-07 -2.78196e-08 -3.65098e-08 9.8793e-09 -2.78196e-08 7.56298e-09 1.0266e-07 -2.78196e-08 9.60101e-08 -2.68305e-08 -2.78196e-08 7.56298e-09 -2.68305e-08 7.51248e-09 -3.41997e-07 9.60101e-08 1.29913e-07 -2.19886e-08 1.29913e-07 -2.19886e-08 -5.57701e-07 1.40521e-07 9.60101e-08 -2.68305e-08 -2.19886e-08 2.67709e-09 -2.68305e-08 7.51248e-09 2.67709e-09 9.96204e-11 -2.19886e-08 2.67709e-09 1.40521e-07 -3.5403e-08 2.67709e-09 9.96204e-11 -3.5403e-08 8.96849e-09 -5.57695e-07 1.40484e-07 1.29899e-07 -2.20011e-08 1.29899e-07 -2.20011e-08 -3.42021e-07 9.59996e-08 1.40484e-07 -3.53849e-08 -2.20011e-08 2.68446e-09 -3.53849e-08 8.96078e-09 2.68446e-09 9.64552e-11 -2.20011e-08 2.68446e-09 9.59996e-08 -2.68488e-08 2.68446e-09 9.64552e-11 -2.68488e-08 7.51433e-09 -3.42021e-07 9.59996e-08 -3.78309e-07 1.02662e-07 -3.78309e-07 1.02662e-07 -5.02644e-07 1.35534e-07 9.59996e-08 -2.68488e-08 1.02662e-07 -2.78096e-08 -2.68488e-08 7.51433e-09 -2.78096e-08 7.55498e-09 1.02662e-07 -2.78096e-08 1.35534e-07 -3.65098e-08 -2.78096e-08 7.55498e-09 -3.65098e-08 9.8793e-09 -3.03785e-08 8.41123e-09 -2.91135e-08 8.12935e-09 8.41123e-09 -4.0729e-09 8.12935e-09 -3.9657e-09 -2.91135e-08 8.12935e-09 7.91015e-09 -1.42437e-09 8.12935e-09 -3.9657e-09 -1.42437e-09 4.30984e-10 -4.0729e-09 8.39068e-09 -3.9657e-09 8.1367e-09 8.39068e-09 -3.03238e-08 8.1367e-09 -2.91052e-08 -3.9657e-09 8.1367e-09 4.30984e-10 -1.40999e-09 8.1367e-09 -2.91052e-08 -1.40999e-09 7.88853e-09 7.91015e-09 -1.42437e-09 4.8458e-09 -3.00312e-10 -1.42437e-09 4.30984e-10 -3.00312e-10 -2.20785e-10 4.8458e-09 -3.00312e-10 8.96078e-09 -2.39164e-09 -3.00312e-10 -2.20785e-10 -2.39164e-09 1.13449e-09 4.30984e-10 -1.40999e-09 -2.20785e-10 -3.01991e-10 -1.40999e-09 7.88853e-09 -3.01991e-10 4.84809e-09 -2.20785e-10 -3.01991e-10 1.13449e-09 -2.3943e-09 -3.01991e-10 4.84809e-09 -2.3943e-09 8.96654e-09 8.96849e-09 -2.41308e-09 4.90741e-09 -5.07655e-10 -2.41308e-09 1.16676e-09 -5.07655e-10 3.17957e-10 4.90741e-09 -5.07655e-10 7.91883e-09 -1.52906e-09 -5.07655e-10 3.17957e-10 -1.52906e-09 8.26327e-10 1.16676e-09 -2.25395e-09 3.17957e-10 -1.19891e-09 -2.25395e-09 7.25081e-09 -1.19891e-09 3.01554e-09 3.17957e-10 -1.19891e-09 8.26327e-10 -2.6573e-09 -1.19891e-09 3.01554e-09 -2.6573e-09 1.12314e-08 7.91883e-09 -1.52906e-09 -2.91149e-08 8.15816e-09 -1.52906e-09 8.26327e-10 8.15816e-09 -4.03694e-09 -2.91149e-08 8.15816e-09 -3.03785e-08 8.41123e-09 8.15816e-09 -4.03694e-09 8.41123e-09 -4.0729e-09 8.26327e-10 -2.6573e-09 -4.03694e-09 8.34006e-09 -2.6573e-09 1.12314e-08 8.34006e-09 -2.97647e-08 -4.03694e-09 8.34006e-09 -4.0729e-09 8.39068e-09 8.34006e-09 -2.97647e-08 8.39068e-09 -3.03238e-08 9.8793e-09 -2.84406e-09 7.56298e-09 -2.17171e-09 -2.84406e-09 1.41822e-09 -2.17171e-09 1.09118e-09 7.56298e-09 -2.17171e-09 7.51248e-09 -2.23016e-09 -2.17171e-09 1.09118e-09 -2.23016e-09 1.14475e-09 1.41822e-09 -2.83218e-09 1.09118e-09 -2.1751e-09 -2.83218e-09 9.88525e-09 -2.1751e-09 7.54346e-09 1.09118e-09 -2.1751e-09 1.14475e-09 -2.21996e-09 -2.1751e-09 7.54346e-09 -2.21996e-09 7.45657e-09 7.51248e-09 -2.23016e-09 9.96204e-11 -2.61992e-10 -2.23016e-09 1.14475e-09 -2.61992e-10 2.23025e-10 9.96204e-11 -2.61992e-10 8.96849e-09 -2.41308e-09 -2.61992e-10 2.23025e-10 -2.41308e-09 1.16676e-09 1.14475e-09 -2.21996e-09 2.23025e-10 -3.44789e-10 -2.21996e-09 7.45657e-09 -3.44789e-10 6.66225e-10 2.23025e-10 -3.44789e-10 1.16676e-09 -2.25395e-09 -3.44789e-10 6.66225e-10 -2.25395e-09 7.25081e-09 8.96078e-09 -2.39164e-09 9.64552e-11 -2.65462e-10 -2.39164e-09 1.13449e-09 -2.65462e-10 2.17676e-10 9.64552e-11 -2.65462e-10 7.51433e-09 -2.22655e-09 -2.65462e-10 2.17676e-10 -2.22655e-09 1.14482e-09 1.13449e-09 -2.3943e-09 2.17676e-10 -2.65506e-10 -2.3943e-09 8.96654e-09 -2.65506e-10 1.0307e-10 2.17676e-10 -2.65506e-10 1.14482e-09 -2.23123e-09 -2.65506e-10 1.0307e-10 -2.23123e-09 7.51315e-09 7.51433e-09 -2.22655e-09 7.55498e-09 -2.1801e-09 -2.22655e-09 1.14482e-09 -2.1801e-09 1.09571e-09 7.55498e-09 -2.1801e-09 9.8793e-09 -2.84406e-09 -2.1801e-09 1.09571e-09 -2.84406e-09 1.41822e-09 1.14482e-09 -2.23123e-09 1.09571e-09 -2.17616e-09 -2.23123e-09 7.51315e-09 -2.17616e-09 7.55518e-09 1.09571e-09 -2.17616e-09 1.41822e-09 -2.83218e-09 -2.17616e-09 7.55518e-09 -2.83218e-09 9.88525e-09 -3.03238e-08 1.14895e-07 -2.91052e-08 1.09068e-07 1.14895e-07 -4.3311e-07 1.09068e-07 -4.05891e-07 -2.91052e-08 1.09068e-07 7.88853e-09 -4.17446e-08 1.09068e-07 -4.05891e-07 -4.17446e-08 2.10832e-07 -4.3311e-07 1.6171e-06 -4.05891e-07 1.49224e-06 1.6171e-06 -5.36907e-06 1.49224e-06 -7.02792e-06 -4.05891e-07 1.49224e-06 2.10832e-07 -1.0303e-06 7.88853e-09 -4.17446e-08 4.84809e-09 -3.32841e-08 -4.17446e-08 2.10832e-07 -3.32841e-08 1.89346e-07 4.84809e-09 -3.32841e-08 8.96654e-09 -3.54322e-08 -3.32841e-08 1.89346e-07 -3.54322e-08 1.40527e-07 2.10832e-07 -1.0303e-06 1.89346e-07 -9.85365e-07 1.89346e-07 -9.85365e-07 1.40527e-07 -5.57706e-07 7.25081e-09 -2.37569e-08 3.01554e-09 -2.69818e-09 -2.37569e-08 7.38638e-08 -2.69818e-09 -3.19986e-08 3.01554e-09 -2.69818e-09 1.12314e-08 -4.74473e-08 -2.69818e-09 -3.19986e-08 -4.74473e-08 1.98596e-07 7.38638e-08 -2.08456e-07 -3.19986e-08 3.1855e-07 -3.19986e-08 3.1855e-07 1.98596e-07 -8.23712e-07 1.12314e-08 -4.74473e-08 -2.97647e-08 1.11034e-07 -4.74473e-08 1.98596e-07 1.11034e-07 -4.10685e-07 -2.97647e-08 1.11034e-07 -3.03238e-08 1.14895e-07 1.11034e-07 -4.10685e-07 1.14895e-07 -4.3311e-07 1.98596e-07 -8.23712e-07 -4.10685e-07 1.49749e-06 -4.10685e-07 1.49749e-06 -4.3311e-07 1.6171e-06 1.49749e-06 -6.96867e-06 1.6171e-06 -5.36907e-06 9.88525e-09 -3.65724e-08 7.54346e-09 -2.77307e-08 -3.65724e-08 1.35776e-07 -2.77307e-08 1.02224e-07 7.54346e-09 -2.77307e-08 7.45657e-09 -2.6561e-08 -2.77307e-08 1.02224e-07 -2.6561e-08 9.46506e-08 1.35776e-07 -5.03747e-07 1.02224e-07 -3.76206e-07 1.02224e-07 -3.76206e-07 9.46506e-08 -3.35753e-07 7.45657e-09 -2.6561e-08 6.66225e-10 -5.80712e-10 -2.6561e-08 9.46506e-08 -5.80712e-10 -4.97327e-09 6.66225e-10 -5.80712e-10 7.25081e-09 -2.37569e-08 -5.80712e-10 -4.97327e-09 -2.37569e-08 7.38638e-08 9.46506e-08 -3.35753e-07 -4.97327e-09 4.57232e-08 -4.97327e-09 4.57232e-08 7.38638e-08 -2.08456e-07 8.96654e-09 -3.54322e-08 1.0307e-10 2.67337e-09 -3.54322e-08 1.40527e-07 2.67337e-09 -2.19814e-08 1.0307e-10 2.67337e-09 7.51315e-09 -2.68502e-08 2.67337e-09 -2.19814e-08 -2.68502e-08 9.60294e-08 1.40527e-07 -5.57706e-07 -2.19814e-08 1.29915e-07 -2.19814e-08 1.29915e-07 9.60294e-08 -3.42055e-07 7.51315e-09 -2.68502e-08 7.55518e-09 -2.7806e-08 -2.68502e-08 9.60294e-08 -2.7806e-08 1.02587e-07 7.55518e-09 -2.7806e-08 9.88525e-09 -3.65724e-08 -2.7806e-08 1.02587e-07 -3.65724e-08 1.35776e-07 9.60294e-08 -3.42055e-07 1.02587e-07 -3.77977e-07 1.02587e-07 -3.77977e-07 1.35776e-07 -5.03747e-07 -5.36907e-06 1.86782e-05 -6.19849e-06 3.18695e-05 -6.19849e-06 3.18695e-05 -7.02792e-06 3.23107e-05 -7.02792e-06 3.23107e-05 -1.38052e-05 5.71302e-05 1.86808e-05 -5.36662e-06 3.18736e-05 -6.19409e-06 3.18736e-05 -6.19409e-06 3.2309e-05 -7.02156e-06 3.2309e-05 -7.02156e-06 5.71301e-05 -1.38082e-05 -1.37413e-05 5.46724e-05 -6.96867e-06 3.22988e-05 -6.96867e-06 3.22988e-05 -6.16887e-06 3.1855e-05 -6.16887e-06 3.1855e-05 -5.36907e-06 1.86782e-05 5.71302e-05 -1.38082e-05 3.2309e-05 -7.02158e-06 3.2309e-05 -7.02158e-06 3.18735e-05 -6.1941e-06 3.18735e-05 -6.1941e-06 1.86808e-05 -5.36662e-06 0.0389981 0.0390008 0.0389925 0.0390031 0.0389925 0.0390031 0.0389928 0.0390025 0.0390008 0.0389981 0.0390031 0.0389925 0.0390031 0.0389925 0.0390025 0.0389928 0.0390093 0.0389947 0.0390216 0.038991 0.0389928 0.0390025 0.0389925 0.0390031 0.0389925 0.0390031 0.0389981 0.0390008 0.0390025 0.0389928 0.0390031 0.0389925 0.0390031 0.0389925 0.0390008 0.0389981 0.0389992 0.0390004 0.0389991 0.0390004 0.0389991 0.0390004 0.0389981 0.0390008 0.0390004 0.0389992 0.0390004 0.0389991 0.0390004 0.0389991 0.0390008 0.0389981 0.0389928 0.0390025 0.0389888 0.0390039 0.0389888 0.0390039 0.0390093 0.0389947 0.0390025 0.0389928 0.0390039 0.0389888 0.0390039 0.0389888 0.0389947 0.0390092 0.0390092 0.0389947 0.0389888 0.0390039 0.0389888 0.0390039 0.0389928 0.0390025 0.0389947 0.0390092 0.0390039 0.0389888 0.0390039 0.0389888 0.0390025 0.0389928 0.0389981 0.0390008 0.0389991 0.0390004 0.0389991 0.0390004 0.0389992 0.0390004 0.0390008 0.0389981 0.0390004 0.0389991 0.0390004 0.0389991 0.0390004 0.0389992 -7.42661e-06 2.11846e-06 -4.86323e-06 1.54374e-06 2.11846e-06 -3.78295e-07 1.54374e-06 -3.60146e-07 -4.86323e-06 1.54374e-06 -3.25593e-06 1.28829e-06 1.54374e-06 -3.60146e-07 1.28829e-06 -3.41997e-07 -3.25593e-06 1.28829e-06 -6.16564e-07 8.36604e-07 1.28829e-06 -3.41997e-07 8.36604e-07 -1.06042e-07 -6.16564e-07 8.36604e-07 9.88005e-06 -1.59176e-06 8.36604e-07 -1.06042e-07 -1.59176e-06 1.29913e-07 9.88005e-06 -1.59175e-06 -6.1654e-07 8.36598e-07 -1.59175e-06 1.29899e-07 8.36598e-07 -1.06061e-07 -6.1654e-07 8.36598e-07 -3.25591e-06 1.28831e-06 8.36598e-07 -1.06061e-07 1.28831e-06 -3.42021e-07 -3.25591e-06 1.28831e-06 -4.86325e-06 1.54373e-06 1.28831e-06 -3.42021e-07 1.54373e-06 -3.60165e-07 -4.86325e-06 1.54373e-06 -7.42662e-06 2.11846e-06 1.54373e-06 -3.60165e-07 2.11846e-06 -3.78309e-07 -3.76206e-07 2.11794e-06 -3.55979e-07 1.54346e-06 2.11794e-06 -7.4264e-06 1.54346e-06 -4.86372e-06 -3.55979e-07 1.54346e-06 -3.35753e-07 1.28679e-06 1.54346e-06 -4.86372e-06 1.28679e-06 -3.25569e-06 -3.35753e-07 1.28679e-06 -1.45015e-07 8.44342e-07 1.28679e-06 -3.25569e-06 8.44342e-07 -6.1298e-07 -1.45015e-07 8.44342e-07 4.57232e-08 -1.5676e-06 8.44342e-07 -6.1298e-07 -1.5676e-06 9.89117e-06 1.29915e-07 -1.59177e-06 -1.0607e-07 8.366e-07 -1.59177e-06 9.88005e-06 8.366e-07 -6.16565e-07 -1.0607e-07 8.366e-07 -3.42055e-07 1.28831e-06 8.366e-07 -6.16565e-07 1.28831e-06 -3.25592e-06 -3.42055e-07 1.28831e-06 -3.60016e-07 1.54371e-06 1.28831e-06 -3.25592e-06 1.54371e-06 -4.86322e-06 -3.60016e-07 1.54371e-06 -3.77977e-07 2.1184e-06 1.54371e-06 -4.86322e-06 2.1184e-06 -7.42659e-06 0.0389947 0.0390092 0.038991 0.0390217 0.0390217 0.038991 0.0390092 0.0389947 0.038991 0.0390217 0.0389947 0.0390092 -4.58131e-07 2.77616e-06 7.16652e-07 1.50414e-06 2.77616e-06 -9.85394e-07 1.50414e-06 -7.71544e-07 7.16652e-07 1.50414e-06 -8.57677e-06 2.75313e-06 1.50414e-06 -7.71544e-07 2.75313e-06 -5.57695e-07 -8.57677e-06 2.75308e-06 7.16678e-07 1.50407e-06 2.75308e-06 -5.57701e-07 1.50407e-06 -7.71543e-07 7.16678e-07 1.50407e-06 -4.5816e-07 2.77615e-06 1.50407e-06 -7.71543e-07 2.77615e-06 -9.85385e-07 -8.95396e-06 2.48911e-06 -8.4398e-06 2.36295e-06 2.48911e-06 -5.02644e-07 2.36295e-06 -4.4047e-07 -8.4398e-06 2.36295e-06 -7.42661e-06 2.11846e-06 2.36295e-06 -4.4047e-07 2.11846e-06 -3.78295e-07 -7.42662e-06 2.11846e-06 -8.4398e-06 2.36295e-06 2.11846e-06 -3.78309e-07 2.36295e-06 -4.40476e-07 -8.4398e-06 2.36295e-06 -8.95396e-06 2.48911e-06 2.36295e-06 -4.40476e-07 2.48911e-06 -5.02644e-07 9.88005e-06 -1.59176e-06 8.17796e-07 4.57398e-07 -1.59176e-06 1.29913e-07 4.57398e-07 -2.13894e-07 8.17796e-07 4.57398e-07 -8.57677e-06 2.75308e-06 4.57398e-07 -2.13894e-07 2.75308e-06 -5.57701e-07 -5.03747e-07 2.48938e-06 -4.39976e-07 2.36269e-06 2.48938e-06 -8.95405e-06 2.36269e-06 -8.43968e-06 -4.39976e-07 2.36269e-06 -3.76206e-07 2.11794e-06 2.36269e-06 -8.43968e-06 2.11794e-06 -7.4264e-06 -3.77977e-07 2.1184e-06 -4.40862e-07 2.36306e-06 2.1184e-06 -7.42659e-06 2.36306e-06 -8.43984e-06 -4.40862e-07 2.36306e-06 -5.03747e-07 2.48938e-06 2.36306e-06 -8.43984e-06 2.48938e-06 -8.95405e-06 -8.57677e-06 2.75313e-06 8.17854e-07 4.57411e-07 2.75313e-06 -5.57695e-07 4.57411e-07 -2.13898e-07 8.17854e-07 4.57411e-07 9.88005e-06 -1.59175e-06 4.57411e-07 -2.13898e-07 -1.59175e-06 1.29899e-07 -9.85365e-07 2.77606e-06 -7.71535e-07 1.50413e-06 2.77606e-06 -4.58273e-07 1.50413e-06 7.16695e-07 -7.71535e-07 1.50413e-06 -5.57706e-07 2.75308e-06 1.50413e-06 7.16695e-07 2.75308e-06 -8.57674e-06 -2.08456e-07 1.95492e-06 5.50468e-08 -6.00833e-07 1.95492e-06 -8.18201e-06 -6.00833e-07 9.25374e-07 5.50468e-08 -6.00833e-07 3.1855e-07 -5.54046e-07 -6.00833e-07 9.25374e-07 -5.54046e-07 6.96963e-07 4.57232e-08 -1.5676e-06 -8.13664e-08 3.20482e-07 -1.5676e-06 9.89117e-06 3.20482e-07 9.64365e-07 -8.13664e-08 3.20482e-07 -2.08456e-07 1.95492e-06 3.20482e-07 9.64365e-07 1.95492e-06 -8.18201e-06 -5.57706e-07 2.75308e-06 -2.13895e-07 4.57383e-07 2.75308e-06 -8.57674e-06 4.57383e-07 8.17828e-07 -2.13895e-07 4.57383e-07 1.29915e-07 -1.59177e-06 4.57383e-07 8.17828e-07 -1.59177e-06 9.88005e-06 3.1855e-07 -5.54046e-07 -2.52581e-07 7.06246e-07 -5.54046e-07 6.96963e-07 7.06246e-07 -1.73808e-06 -2.52581e-07 7.06246e-07 -8.23712e-07 9.358e-07 7.06246e-07 -1.73808e-06 9.358e-07 2.08208e-07 3.28184e-07 1.60368e-06 -2.90169e-06 3.20807e-06 1.60368e-06 -1.03015e-06 3.20807e-06 -1.00777e-06 -2.90169e-06 3.20807e-06 -4.58131e-07 2.77616e-06 3.20807e-06 -1.00777e-06 2.77616e-06 -9.85394e-07 -4.5816e-07 2.77615e-06 -2.90173e-06 3.2081e-06 2.77615e-06 -9.85385e-07 3.2081e-06 -1.00777e-06 -2.90173e-06 3.2081e-06 3.28165e-07 1.60368e-06 3.2081e-06 -1.00777e-06 1.60368e-06 -1.03015e-06 -1.0303e-06 1.60415e-06 -1.00783e-06 3.20781e-06 1.60415e-06 3.28782e-07 3.20781e-06 -2.90213e-06 -1.00783e-06 3.20781e-06 -9.85365e-07 2.77606e-06 3.20781e-06 -2.90213e-06 2.77606e-06 -4.58273e-07 -7.02156e-06 -2.76501e-06 -1.38082e-05 4.04419e-06 -2.76501e-06 1.49154e-06 4.04419e-06 2.30692e-07 -1.38082e-05 4.04419e-06 3.28184e-07 1.60368e-06 4.04419e-06 2.30692e-07 1.60368e-06 -1.03015e-06 3.28165e-07 1.60368e-06 -1.38082e-05 4.04418e-06 1.60368e-06 -1.03015e-06 4.04418e-06 2.30705e-07 -1.38082e-05 4.04418e-06 -7.02158e-06 -2.76501e-06 4.04418e-06 2.30705e-07 -2.76501e-06 1.49156e-06 1.49224e-06 -2.76784e-06 2.30973e-07 4.0457e-06 -2.76784e-06 -7.02792e-06 4.0457e-06 -1.38052e-05 2.30973e-07 4.0457e-06 -1.0303e-06 1.60415e-06 4.0457e-06 -1.38052e-05 1.60415e-06 3.28782e-07 -8.23712e-07 9.358e-07 3.3689e-07 4.00796e-06 9.358e-07 2.08208e-07 4.00796e-06 -1.37413e-05 3.3689e-07 4.00796e-06 1.49749e-06 -2.73559e-06 4.00796e-06 -1.37413e-05 -2.73559e-06 -6.96867e-06 0.000169987 0.00215551 0.000199631 0.00266105 0.000199631 0.00266105 0.000223532 0.00319643 0.00215551 0.000169987 0.00266105 0.000199631 0.00266105 0.000199631 0.00319643 0.000223532 0.00319644 0.000223532 0.00266105 0.000199631 0.00266105 0.000199631 0.00215551 0.000169987 -7.4264e-06 1.95253e-05 -6.14506e-06 1.79605e-05 -6.14506e-06 1.79605e-05 -4.86372e-06 6.23469e-06 -4.86372e-06 6.23469e-06 -4.0597e-06 1.88361e-06 -4.0597e-06 1.88361e-06 -3.25569e-06 6.03373e-06 0.0390549 0.0389925 0.0390615 0.0389926 0.0384381 0.0390615 0.0382145 0.0390668 0.0390615 0.0389926 0.0390668 0.0389928 0.0389925 0.0390549 0.0389926 0.0390615 0.0389926 0.0390615 0.0389928 0.0390668 0.0390615 0.0384381 0.0390668 0.0382145 1.95253e-05 -7.42661e-06 1.79604e-05 -6.14492e-06 1.79604e-05 -6.14492e-06 6.2345e-06 -4.86323e-06 6.2345e-06 -4.86323e-06 1.88359e-06 -4.05958e-06 1.88359e-06 -4.05958e-06 6.03387e-06 -3.25593e-06 -3.25569e-06 6.03373e-06 -1.93433e-06 -7.17987e-07 -1.93433e-06 -7.17987e-07 -6.1298e-07 -1.04273e-05 1.86782e-05 0.000725723 2.52739e-05 0.000740641 2.52739e-05 0.000740641 3.18695e-05 0.000644037 0.0387067 0.0390216 0.0384966 0.0390252 6.03387e-06 -3.25593e-06 -7.17504e-07 -1.93625e-06 -7.17504e-07 -1.93625e-06 -1.04276e-05 -6.16564e-07 3.23107e-05 0.000934598 4.47205e-05 0.00105691 4.47205e-05 0.00105691 5.71302e-05 0.00121821 0.0380539 0.0389219 0.038417 0.0389266 0.0348904 0.038417 0.0357614 0.0385865 0.038417 0.0389266 0.0385865 0.0389798 0.0357614 0.0385865 0.0365819 0.0387405 0.0385865 0.0389798 0.0387405 0.0389955 -6.16565e-07 -1.04276e-05 -1.93624e-06 -7.17546e-07 -1.93624e-06 -7.17546e-07 -3.25592e-06 6.03386e-06 -1.04276e-05 -6.1654e-07 -7.17495e-07 -1.93622e-06 -7.17495e-07 -1.93622e-06 6.0339e-06 -3.25591e-06 -3.25592e-06 6.03386e-06 -4.05957e-06 1.88358e-06 -4.05957e-06 1.88358e-06 -4.86322e-06 6.23447e-06 -4.86322e-06 6.23447e-06 -6.14491e-06 1.79604e-05 -6.14491e-06 1.79604e-05 -7.42659e-06 1.95253e-05 0.0382145 0.0390668 0.0384381 0.0390615 0.0390668 0.0389928 0.0390615 0.0389926 0.0390615 0.0389926 0.0390549 0.0389925 0.0389928 0.0390668 0.0389926 0.0390615 0.0390668 0.0382145 0.0390615 0.0384381 0.0389926 0.0390615 0.0389925 0.0390549 6.0339e-06 -3.25591e-06 1.88359e-06 -4.05958e-06 1.88359e-06 -4.05958e-06 6.2345e-06 -4.86325e-06 6.2345e-06 -4.86325e-06 1.79604e-05 -6.14494e-06 1.79604e-05 -6.14494e-06 1.95253e-05 -7.42662e-06 0.000725735 1.86808e-05 0.000740643 2.52772e-05 0.000740643 2.52772e-05 0.000644036 3.18736e-05 0.0389219 0.0380539 0.0389266 0.038417 0.0389266 0.038417 0.0389798 0.0385865 0.038417 0.0348904 0.0385865 0.0357613 0.0389798 0.0385865 0.0389955 0.0387405 0.0385865 0.0357613 0.0387405 0.0365819 0.000934598 3.2309e-05 0.00105691 4.47196e-05 0.00105691 4.47196e-05 0.00121821 5.71301e-05 3.18695e-05 0.000644037 3.20901e-05 0.000693339 0.000644037 0.00399873 0.000693339 0.00433094 3.20901e-05 0.000693339 3.23107e-05 0.000934598 0.0387405 0.0389955 0.0387755 0.0390372 0.0387755 0.0390372 0.038938 0.0390093 0.0362702 0.0388425 0.0370945 0.0389373 0.00399873 0.000644036 0.00433094 0.000693338 0.000644036 3.18736e-05 0.000693338 3.20913e-05 0.000693338 3.20913e-05 0.000934598 3.2309e-05 0.0388425 0.0362702 0.0389373 0.0370945 0.0370727 0.0389231 0.036253 0.038814 0.0388781 0.0390154 0.0387741 0.0390338 0.0387741 0.0390338 0.038739 0.0389955 0.0389375 0.0370943 0.0388427 0.03627 0.0389955 0.0387405 0.0390372 0.0387755 0.0390372 0.0387755 0.0390093 0.038938 5.46724e-05 0.00121249 4.34856e-05 0.00105447 4.34856e-05 0.00105447 3.22988e-05 0.000933146 0.0365534 0.038739 0.0357374 0.0385846 0.038739 0.0389955 0.0385846 0.0389806 0.0357374 0.0385846 0.0348755 0.0384153 0.0385846 0.0389806 0.0384153 0.0389273 0.0384153 0.0389273 0.0380528 0.0389224 3.1855e-05 0.000643818 2.52666e-05 0.000740587 2.52666e-05 0.000740587 1.86782e-05 0.000725723 0.0389955 0.0387407 0.0389806 0.0385866 0.0387407 0.036582 0.0385866 0.0357614 0.0389806 0.0385866 0.0389273 0.0384171 0.0385866 0.0357614 0.0384171 0.0348904 0.0389273 0.0384171 0.0389224 0.038054 0.00121821 5.71302e-05 0.00105691 4.47196e-05 0.00105691 4.47196e-05 0.000934598 3.2309e-05 0.000644036 3.18735e-05 0.000740643 2.52772e-05 0.000740643 2.52772e-05 0.000725735 1.86808e-05 0.0390096 0.0389981 0.0390461 0.0389953 0.0387051 0.0390461 0.0385944 0.0390549 0.0390461 0.0389953 0.0390549 0.0389925 0.0389981 0.0390096 0.0389953 0.0390461 0.0389953 0.0390461 0.0389925 0.0390549 0.0390461 0.0387051 0.0390549 0.0385944 0.0389325 0.0390093 0.0388435 0.0390154 0.0388435 0.0390154 0.0387067 0.0390216 0.0385944 0.0390549 0.0387051 0.0390461 0.0390549 0.0389925 0.039