# vtk DataFile Version 3.0
#This file was generated by the deal.II library on 2023/3/1 at 3:09:31
ASCII
DATASET UNSTRUCTURED_GRID

FIELD FieldData 2
CYCLE 1 1 int
11
TIME 1 1 double
0.022
POINTS 2992 double
0 0 4
-2.82843 0 2.82843
2.26995e-16 -0.707107 3.70711
-2.62132 -0.707107 2.62132
2.26995e-16 0.707107 3.70711
-2.62132 0.707107 2.62132
0 0 4
-2.82843 0 2.82843
-6.80984e-16 0.707107 -3.70711
2.62132 0.707107 -2.62132
0 0 -4
2.82843 0 -2.82843
2.62132 0.707107 -2.62132
3.70711 0.707107 0
2.82843 0 -2.82843
4 0 0
2.11836 0.707107 0.877452
1.62132 0.707107 1.62132
2.41809 0.92388 1.0016
1.85072 0.92388 1.85072
2 0 0
1.84776 1.22465e-16 0.765367
2.07612 0.382683 0
1.91809 0.382683 0.794497
1.84776 1.22465e-16 0.765367
1.41421 1.22465e-16 1.41421
1.91809 0.382683 0.794497
1.46804 0.382683 1.46804
2.07612 0.382683 0
1.91809 0.382683 0.794497
2.29289 0.707107 0
2.11836 0.707107 0.877452
1.91809 0.382683 0.794497
1.46804 0.382683 1.46804
2.11836 0.707107 0.877452
1.62132 0.707107 1.62132
-1.41421 1.22465e-16 1.41421
-1.84776 1.22465e-16 0.765367
-1.46804 0.382683 1.46804
-1.91809 0.382683 0.794497
-1.84776 1.22465e-16 0.765367
-2 0 0
-1.91809 0.382683 0.794497
-2.07612 0.382683 2.54251e-16
-1.46804 0.382683 1.46804
-1.91809 0.382683 0.794497
-1.62132 0.707107 1.62132
-2.11836 0.707107 0.877452
-1.62132 0.707107 1.62132
-2.11836 0.707107 0.877452
-1.85072 0.92388 1.85072
-2.41809 0.92388 1.0016
-1.85072 0.92388 1.85072
-2.41809 0.92388 1.0016
-2.12132 1 2.12132
-2.77164 1 1.14805
-2.12132 -1 2.12132
-2.77164 -1 1.14805
-1.85072 -0.92388 1.85072
-2.41809 -0.92388 1.0016
-1.85072 -0.92388 1.85072
-2.41809 -0.92388 1.0016
-1.62132 -0.707107 1.62132
-2.11836 -0.707107 0.877452
2.07612 -0.382683 0
1.91809 -0.382683 0.794497
2 0 0
1.84776 1.22465e-16 0.765367
-1.84776 1.22465e-16 -0.765367
-1.41421 1.22465e-16 -1.41421
-1.91809 0.382683 -0.794497
-1.46804 0.382683 -1.46804
-1.62132 -0.707107 1.62132
-2.11836 -0.707107 0.877452
-1.46804 -0.382683 1.46804
-1.91809 -0.382683 0.794497
-2.11836 -0.707107 0.877452
-2.29289 -0.707107 2.80798e-16
-1.91809 -0.382683 0.794497
-2.07612 -0.382683 2.54251e-16
-1.46804 -0.382683 1.46804
-1.91809 -0.382683 0.794497
-1.41421 1.22465e-16 1.41421
-1.84776 1.22465e-16 0.765367
-1.91809 -0.382683 0.794497
-2.07612 -0.382683 2.54251e-16
-1.84776 1.22465e-16 0.765367
-2 0 0
-2.62132 -0.707107 2.62132
-3.42492 -0.707107 1.41865
-2.39192 -0.92388 2.39192
-3.12519 -0.92388 1.2945
-3.42492 -0.707107 1.41865
-3.70711 -0.707107 4.5399e-16
-3.12519 -0.92388 1.2945
-3.38268 -0.92388 4.14259e-16
-2.39192 -0.92388 2.39192
-3.12519 -0.92388 1.2945
-2.12132 -1 2.12132
-2.77164 -1 1.14805
1.62132 0.707107 -1.62132
2.11836 0.707107 -0.877452
1.85072 0.92388 -1.85072
2.41809 0.92388 -1.0016
1.85072 0.92388 -1.85072
2.41809 0.92388 -1.0016
2.12132 1 -2.12132
2.77164 1 -1.14805
2.41809 0.92388 -1.0016
2.61732 0.92388 0
2.77164 1 -1.14805
3 1 0
2.12132 -1 -2.12132
2.77164 -1 -1.14805
1.85072 -0.92388 -1.85072
2.41809 -0.92388 -1.0016
1.85072 -0.92388 -1.85072
2.41809 -0.92388 -1.0016
1.62132 -0.707107 -1.62132
2.11836 -0.707107 -0.877452
2.41809 -0.92388 -1.0016
2.61732 -0.92388 0
2.11836 -0.707107 -0.877452
2.29289 -0.707107 0
-2.12132 1 2.12132
-2.77164 1 1.14805
-2.39192 0.92388 2.39192
-3.12519 0.92388 1.2945
-2.77164 1 1.14805
-3 1 0
-3.12519 0.92388 1.2945
-3.38268 0.92388 4.14259e-16
-2.39192 0.92388 2.39192
-3.12519 0.92388 1.2945
-2.62132 0.707107 2.62132
-3.42492 0.707107 1.41865
-3.12519 0.92388 1.2945
-3.38268 0.92388 4.14259e-16
-3.42492 0.707107 1.41865
-3.70711 0.707107 4.5399e-16
2.62132 -0.707107 -2.62132
3.42492 -0.707107 -1.41865
2.39192 -0.92388 -2.39192
3.12519 -0.92388 -1.2945
3.42492 -0.707107 -1.41865
3.70711 -0.707107 0
3.12519 -0.92388 -1.2945
3.38268 -0.92388 0
2.39192 -0.92388 -2.39192
3.12519 -0.92388 -1.2945
2.12132 -1 -2.12132
2.77164 -1 -1.14805
3.12519 -0.92388 -1.2945
3.38268 -0.92388 0
2.77164 -1 -1.14805
3 -1 0
2.12132 1 -2.12132
2.77164 1 -1.14805
2.39192 0.92388 -2.39192
3.12519 0.92388 -1.2945
2.77164 1 -1.14805
3 1 0
3.12519 0.92388 -1.2945
3.38268 0.92388 0
2.39192 0.92388 -2.39192
3.12519 0.92388 -1.2945
2.62132 0.707107 -2.62132
3.42492 0.707107 -1.41865
3.12519 0.92388 -1.2945
3.38268 0.92388 0
3.42492 0.707107 -1.41865
3.70711 0.707107 0
1.2945 0.92388 3.12519
2.0713e-16 0.92388 3.38268
1.41865 0.707107 3.42492
2.26995e-16 0.707107 3.70711
1.41421 1.22465e-16 -1.41421
1.84776 1.22465e-16 -0.765367
1.46804 0.382683 -1.46804
1.91809 0.382683 -0.794497
1.46804 0.382683 -1.46804
1.91809 0.382683 -0.794497
1.62132 0.707107 -1.62132
2.11836 0.707107 -0.877452
1.91809 0.382683 -0.794497
2.07612 0.382683 0
2.11836 0.707107 -0.877452
2.29289 0.707107 0
1.62132 -0.707107 -1.62132
2.11836 -0.707107 -0.877452
1.46804 -0.382683 -1.46804
1.91809 -0.382683 -0.794497
2.11836 -0.707107 -0.877452
2.29289 -0.707107 0
1.91809 -0.382683 -0.794497
2.07612 -0.382683 0
1.46804 -0.382683 -1.46804
1.91809 -0.382683 -0.794497
1.41421 1.22465e-16 -1.41421
1.84776 1.22465e-16 -0.765367
1.91809 -0.382683 -0.794497
2.07612 -0.382683 0
1.84776 1.22465e-16 -0.765367
2 0 0
3.70711 0.707107 0
3.42492 0.707107 1.41865
3.92388 0.382683 0
3.62519 0.382683 1.5016
3.92388 0.382683 0
3.62519 0.382683 1.5016
4 0 0
3.69552 0 1.53073
3.70711 -0.707107 0
3.42492 -0.707107 1.41865
3.38268 -0.92388 0
3.12519 -0.92388 1.2945
-2.82843 0 2.82843
-3.69552 0 1.53073
-2.7746 -0.382683 2.7746
-3.62519 -0.382683 1.5016
-3.69552 0 1.53073
-4 0 0
-3.62519 -0.382683 1.5016
-3.92388 -0.382683 4.80537e-16
-2.7746 -0.382683 2.7746
-3.62519 -0.382683 1.5016
-2.62132 -0.707107 2.62132
-3.42492 -0.707107 1.41865
-3.62519 -0.382683 1.5016
-3.92388 -0.382683 4.80537e-16
-3.42492 -0.707107 1.41865
-3.70711 -0.707107 4.5399e-16
-3.70711 0.707107 4.5399e-16
-3.42492 0.707107 -1.41865
-3.92388 0.382683 4.80537e-16
-3.62519 0.382683 -1.5016
-2.62132 0.707107 2.62132
-3.42492 0.707107 1.41865
-2.7746 0.382683 2.7746
-3.62519 0.382683 1.5016
-3.42492 0.707107 1.41865
-3.70711 0.707107 4.5399e-16
-3.62519 0.382683 1.5016
-3.92388 0.382683 4.80537e-16
-2.7746 0.382683 2.7746
-3.62519 0.382683 1.5016
-2.82843 0 2.82843
-3.69552 0 1.53073
-3.62519 0.382683 1.5016
-3.92388 0.382683 4.80537e-16
-3.69552 0 1.53073
-4 0 0
4 0 0
3.69552 0 1.53073
3.92388 -0.382683 0
3.62519 -0.382683 1.5016
1.53073 0 3.69552
0 0 4
1.5016 -0.382683 3.62519
2.40268e-16 -0.382683 3.92388
1.5016 -0.382683 3.62519
2.40268e-16 -0.382683 3.92388
1.41865 -0.707107 3.42492
2.26995e-16 -0.707107 3.70711
1.41865 -0.707107 3.42492
2.26995e-16 -0.707107 3.70711
1.2945 -0.92388 3.12519
2.0713e-16 -0.92388 3.38268
1.41865 0.707107 3.42492
2.26995e-16 0.707107 3.70711
1.5016 0.382683 3.62519
2.40268e-16 0.382683 3.92388
1.5016 0.382683 3.62519
2.40268e-16 0.382683 3.92388
1.53073 0 3.69552
0 0 4
0 0 2
-0.765367 1.22465e-16 1.84776
1.27126e-16 0.382683 2.07612
-0.794497 0.382683 1.91809
-0.765367 1.22465e-16 1.84776
-1.41421 1.22465e-16 1.41421
-0.794497 0.382683 1.91809
-1.46804 0.382683 1.46804
1.27126e-16 0.382683 2.07612
-0.794497 0.382683 1.91809
1.40399e-16 0.707107 2.29289
-0.877452 0.707107 2.11836
-0.794497 0.382683 1.91809
-1.46804 0.382683 1.46804
-0.877452 0.707107 2.11836
-1.62132 0.707107 1.62132
1.40399e-16 0.707107 2.29289
-0.877452 0.707107 2.11836
1.60264e-16 0.92388 2.61732
-1.0016 0.92388 2.41809
-0.877452 0.707107 2.11836
-1.62132 0.707107 1.62132
-1.0016 0.92388 2.41809
-1.85072 0.92388 1.85072
1.60264e-16 0.92388 2.61732
-1.0016 0.92388 2.41809
0 1 3
-1.14805 1 2.77164
-1.0016 0.92388 2.41809
-1.85072 0.92388 1.85072
-1.14805 1 2.77164
-2.12132 1 2.12132
0 -1 3
-1.14805 -1 2.77164
1.60264e-16 -0.92388 2.61732
-1.0016 -0.92388 2.41809
-1.14805 -1 2.77164
-2.12132 -1 2.12132
-1.0016 -0.92388 2.41809
-1.85072 -0.92388 1.85072
1.60264e-16 -0.92388 2.61732
-1.0016 -0.92388 2.41809
1.40399e-16 -0.707107 2.29289
-0.877452 -0.707107 2.11836
-1.0016 -0.92388 2.41809
-1.85072 -0.92388 1.85072
-0.877452 -0.707107 2.11836
-1.62132 -0.707107 1.62132
1.40399e-16 -0.707107 2.29289
-0.877452 -0.707107 2.11836
1.27126e-16 -0.382683 2.07612
-0.794497 -0.382683 1.91809
-0.877452 -0.707107 2.11836
-1.62132 -0.707107 1.62132
-0.794497 -0.382683 1.91809
-1.46804 -0.382683 1.46804
1.27126e-16 -0.382683 2.07612
-0.794497 -0.382683 1.91809
0 0 2
-0.765367 1.22465e-16 1.84776
-0.794497 -0.382683 1.91809
-1.46804 -0.382683 1.46804
-0.765367 1.22465e-16 1.84776
-1.41421 1.22465e-16 1.41421
2.26995e-16 -0.707107 3.70711
-1.41865 -0.707107 3.42492
2.0713e-16 -0.92388 3.38268
-1.2945 -0.92388 3.12519
-1.41865 -0.707107 3.42492
-2.62132 -0.707107 2.62132
-1.2945 -0.92388 3.12519
-2.39192 -0.92388 2.39192
2.0713e-16 -0.92388 3.38268
-1.2945 -0.92388 3.12519
0 -1 3
-1.14805 -1 2.77164
-1.2945 -0.92388 3.12519
-2.39192 -0.92388 2.39192
-1.14805 -1 2.77164
-2.12132 -1 2.12132
0 1 3
-1.14805 1 2.77164
2.0713e-16 0.92388 3.38268
-1.2945 0.92388 3.12519
-1.14805 1 2.77164
-2.12132 1 2.12132
-1.2945 0.92388 3.12519
-2.39192 0.92388 2.39192
2.0713e-16 0.92388 3.38268
-1.2945 0.92388 3.12519
2.26995e-16 0.707107 3.70711
-1.41865 0.707107 3.42492
-1.2945 0.92388 3.12519
-2.39192 0.92388 2.39192
-1.41865 0.707107 3.42492
-2.62132 0.707107 2.62132
-2.62132 0.707107 -2.62132
-1.41865 0.707107 -3.42492
-2.7746 0.382683 -2.7746
-1.5016 0.382683 -3.62519
-1.41865 0.707107 -3.42492
-6.80984e-16 0.707107 -3.70711
-1.5016 0.382683 -3.62519
-7.20805e-16 0.382683 -3.92388
-2.7746 0.382683 -2.7746
-1.5016 0.382683 -3.62519
-2.82843 0 -2.82843
-1.53073 0 -3.69552
-1.5016 0.382683 -3.62519
-7.20805e-16 0.382683 -3.92388
-1.53073 0 -3.69552
0 0 -4
0 0 -2
0.765367 1.22465e-16 -1.84776
-3.81377e-16 0.382683 -2.07612
0.794497 0.382683 -1.91809
0.765367 1.22465e-16 -1.84776
1.41421 1.22465e-16 -1.41421
0.794497 0.382683 -1.91809
1.46804 0.382683 -1.46804
-3.81377e-16 0.382683 -2.07612
0.794497 0.382683 -1.91809
-4.21198e-16 0.707107 -2.29289
0.877452 0.707107 -2.11836
0.794497 0.382683 -1.91809
1.46804 0.382683 -1.46804
0.877452 0.707107 -2.11836
1.62132 0.707107 -1.62132
-4.21198e-16 0.707107 -2.29289
[...]
POINT_DATA 2992
SCALARS U double 1
LOOKUP_TABLE default
-0.000124614 4.28906e-05 -0.00012859 4.20085e-05 4.83e-05 -1.39402e-05 -0.000124614 4.28906e-05 -4.31283e-05 1.59641e-05 2.31696e-05 -2.12948e-05 1.59641e-05 9.41994e-06 -2.12948e-05 6.6287e-05 0.0021601 0.00207534 0.00215975 0.00205614 0.0012005 0.00161816 0.00112927 0.00164965 0.00161816 0.00210447 0.00164965 0.00208996 0.00112927 0.00164965 0.000762011 0.0021601 0.00164965 0.00208996 0.0021601 0.00207534 5.26249e-05 -1.51536e-05 5.56282e-05 -2.79279e-05 -1.51536e-05 0.000977181 -2.79279e-05 0.000732163 5.56282e-05 -2.79279e-05 5.49238e-05 -2.65965e-05 5.49238e-05 -2.65965e-05 1.25439e-05 -4.49412e-06 1.25439e-05 -4.49412e-06 -2.60439e-05 4.39004e-06 -3.85472e-05 1.27807e-05 8.32196e-06 -1.98666e-06 8.32196e-06 -1.98666e-06 5.96171e-05 -2.94523e-05 0.000819391 0.00211675 0.0012005 0.00161816 0.00216435 0.00203801 0.00212014 0.00203397 5.96171e-05 -2.94523e-05 5.5709e-05 4.01743e-06 -2.94523e-05 0.000807917 4.01743e-06 0.00106764 5.5709e-05 4.01743e-06 5.26249e-05 -1.51536e-05 4.01743e-06 0.00106764 -1.51536e-05 0.000977181 4.20085e-05 9.20801e-07 -1.26204e-05 3.14101e-06 9.20801e-07 0.000130636 3.14101e-06 0.00045935 -1.26204e-05 3.14101e-06 -3.85472e-05 1.27807e-05 5.84537e-05 -3.08634e-05 1.35236e-05 -1.15796e-05 1.35236e-05 -1.15796e-05 -3.28386e-05 6.33339e-06 -1.15796e-05 0.000535114 6.33339e-06 0.00035491 -1.49301e-05 -1.21787e-05 2.44206e-05 -2.26571e-05 2.44206e-05 -2.26571e-05 6.22974e-05 -2.25291e-05 -2.26571e-05 0.000272383 -2.25291e-05 0.000623642 -2.60439e-05 4.39004e-06 -3.68986e-05 1.44245e-05 4.39004e-06 0.000538533 1.44245e-05 0.000359576 -3.68986e-05 1.44245e-05 -1.39402e-05 -1.06737e-05 1.44245e-05 0.000359576 -1.06737e-05 6.89167e-05 -2.1808e-05 1.25502e-05 -1.80837e-05 -3.41967e-05 1.25502e-05 4.68311e-05 -3.41967e-05 0.000152829 -1.80837e-05 -3.41967e-05 -1.49301e-05 -1.21787e-05 -3.41967e-05 0.000152829 -1.21787e-05 0.000130687 -3.28386e-05 6.33339e-06 -7.48655e-06 5.58528e-06 6.33339e-06 0.00035491 5.58528e-06 6.4609e-05 -7.48655e-06 5.58528e-06 1.59641e-05 1.2692e-05 5.58528e-06 6.4609e-05 1.2692e-05 9.41994e-06 0.000933427 5.63949e-05 0.00119682 4.83e-05 3.70779e-05 3.01563e-05 4.6527e-05 -1.11222e-05 4.6527e-05 -1.11222e-05 5.84537e-05 -3.08634e-05 -1.11222e-05 0.00112927 -3.08634e-05 0.000762011 6.22974e-05 -2.25291e-05 4.99688e-05 -1.97963e-05 -2.25291e-05 0.000623642 -1.97963e-05 0.000819391 4.99688e-05 -1.97963e-05 3.70779e-05 3.01563e-05 -1.97963e-05 0.000819391 3.01563e-05 0.0012005 9.41994e-06 0.000287256 3.78534e-05 -0.000114158 3.78534e-05 -0.000114158 6.6287e-05 -0.000103526 4.68311e-05 -5.75856e-05 0.000152829 0.000573394 4.28906e-05 -1.39482e-05 4.24495e-05 -1.39576e-05 -1.39482e-05 1.46485e-05 -1.39576e-05 1.70233e-05 4.24495e-05 -1.39576e-05 4.20085e-05 9.20801e-07 -1.39576e-05 1.70233e-05 9.20801e-07 0.000130636 6.89167e-05 0.000266741 2.23193e-05 -0.00013218 -1.39402e-05 -1.06737e-05 1.44752e-05 -9.47064e-06 -1.06737e-05 6.89167e-05 -9.47064e-06 2.23193e-05 1.44752e-05 -9.47064e-06 4.28906e-05 -1.39482e-05 -9.47064e-06 2.23193e-05 -1.39482e-05 1.46485e-05 6.6287e-05 -0.000103526 5.81478e-05 -5.27509e-05 0.00150478 -0.000124614 0.00163591 -0.000126602 0.00163591 -0.000126602 0.00156205 -0.00012859 0.00156205 -0.00012859 0.000914239 -1.54022e-05 0.00119682 4.83e-05 0.00118195 -3.81571e-05 0.00118195 -3.81571e-05 0.00150478 -0.000124614 -0.000134421 -5.3997e-05 -0.000136051 -5.35592e-05 -5.3997e-05 5.26249e-05 -5.35592e-05 5.56282e-05 -0.000136051 -5.35592e-05 -0.000134148 -5.12777e-05 -5.35592e-05 5.56282e-05 -5.12777e-05 5.49238e-05 -0.000134148 -5.12777e-05 -2.4652e-05 -1.07622e-05 -5.12777e-05 5.49238e-05 -1.07622e-05 1.25439e-05 -2.4652e-05 -1.07622e-05 9.62352e-05 2.33736e-05 -1.07622e-05 1.25439e-05 2.33736e-05 -2.60439e-05 0.000130754 3.57915e-05 -1.26501e-05 -8.12655e-06 3.57915e-05 -3.85472e-05 -8.12655e-06 8.32196e-06 -1.26501e-05 -8.12655e-06 -0.000149563 -5.91589e-05 -8.12655e-06 8.32196e-06 -5.91589e-05 5.96171e-05 -0.000149563 -5.91589e-05 -0.000146458 -5.65479e-05 -5.91589e-05 5.96171e-05 -5.65479e-05 5.5709e-05 -0.000146458 -5.65479e-05 -0.000134421 -5.3997e-05 -5.65479e-05 5.5709e-05 -5.3997e-05 5.26249e-05 -0.00012859 -4.32906e-05 -1.54022e-05 2.07229e-05 -4.32906e-05 4.20085e-05 2.07229e-05 -1.26204e-05 -1.54022e-05 2.07229e-05 0.000130754 3.57915e-05 2.07229e-05 -1.26204e-05 3.57915e-05 -3.85472e-05 9.62352e-05 2.33736e-05 5.63949e-05 4.57303e-05 2.33736e-05 -2.60439e-05 4.57303e-05 -3.68986e-05 5.63949e-05 4.57303e-05 4.83e-05 1.71799e-05 4.57303e-05 -3.68986e-05 1.71799e-05 -1.39402e-05 0.000386228 0.000621575 5.28813e-05 0.000923729 0.000621575 -4.31283e-05 0.000923729 -9.97937e-06 5.28813e-05 0.000923729 0.000118582 0.000530192 0.000923729 -9.97937e-06 0.000530192 2.31696e-05 -9.54367e-05 -4.20968e-05 -0.000121695 -4.88777e-05 -4.20968e-05 3.70779e-05 -4.88777e-05 4.6527e-05 -0.000121695 -4.88777e-05 -0.000145595 -5.51115e-05 -4.88777e-05 4.6527e-05 -5.51115e-05 5.84537e-05 -0.000145595 -5.51115e-05 -2.19622e-05 -1.2563e-05 -5.51115e-05 5.84537e-05 -1.2563e-05 1.35236e-05 -2.19622e-05 -1.2563e-05 9.53731e-05 3.05159e-05 -1.2563e-05 1.35236e-05 3.05159e-05 -3.28386e-05 6.53997e-05 2.40803e-05 -4.64991e-05 -1.87307e-05 2.40803e-05 -1.49301e-05 -1.87307e-05 2.44206e-05 -4.64991e-05 -1.87307e-05 -0.000161574 -6.06293e-05 -1.87307e-05 2.44206e-05 -6.06293e-05 6.22974e-05 -0.000161574 -6.06293e-05 -0.000129561 -5.21383e-05 -6.06293e-05 6.22974e-05 -5.21383e-05 4.99688e-05 -0.000129561 -5.21383e-05 -9.54367e-05 -4.20968e-05 -5.21383e-05 4.99688e-05 -4.20968e-05 3.70779e-05 2.31696e-05 9.374e-07 3.9132e-05 7.19181e-06 9.374e-07 -2.12948e-05 7.19181e-06 -2.28064e-05 3.9132e-05 7.19181e-06 4.86675e-05 1.303e-05 7.19181e-06 -2.28064e-05 1.303e-05 -2.1808e-05 -2.12948e-05 2.24961e-05 -2.28064e-05 1.888e-05 2.24961e-05 6.6287e-05 1.888e-05 5.81478e-05 -2.28064e-05 1.888e-05 -2.1808e-05 1.25502e-05 1.888e-05 5.81478e-05 1.25502e-05 4.68311e-05 4.86675e-05 1.303e-05 5.92167e-05 1.91062e-05 1.303e-05 -2.1808e-05 1.91062e-05 -1.80837e-05 5.92167e-05 1.91062e-05 6.53997e-05 2.40803e-05 1.91062e-05 -1.80837e-05 2.40803e-05 -1.49301e-05 9.53731e-05 3.05159e-05 2.93378e-05 9.4845e-06 3.05159e-05 -3.28386e-05 9.4845e-06 -7.48655e-06 2.93378e-05 9.4845e-06 -4.31283e-05 -1.35821e-05 9.4845e-06 -7.48655e-06 -1.35821e-05 1.59641e-05 0.000848249 0.000476614 0.00109377 0.000505908 0.00109377 0.000505908 0.00129714 0.000600852 -2.65965e-05 3.34357e-05 -1.55453e-05 1.62249e-07 3.34357e-05 0.000656039 1.62249e-07 0.00055164 -1.55453e-05 1.62249e-07 -4.49412e-06 -3.15392e-05 1.62249e-07 0.00055164 -3.15392e-05 0.000508199 -4.49412e-06 -3.15392e-05 -5.20399e-08 1.74003e-05 -3.15392e-05 0.000508199 1.74003e-05 0.000541708 -5.20399e-08 1.74003e-05 4.39004e-06 0.000271462 1.74003e-05 0.000541708 0.000271462 0.000538533 1.27807e-05 -1.61421e-05 5.39704e-06 -2.54637e-07 5.39704e-06 -2.54637e-07 -1.98666e-06 1.09834e-05 0.000656039 0.001482 0.00055164 0.00139165 0.001482 0.00216512 0.00139165 0.00195143 0.00055164 0.00139165 0.000508199 0.00132054 0.00139165 0.00195143 0.00132054 0.00147137 0.000508199 0.00132054 0.000541708 0.00129537 0.00132054 0.00147137 0.00129537 0.000998112 0.00129537 0.000998112 0.00122821 0.000759167 0.000476614 0.000851501 0.000505908 0.000845419 0.000505908 0.000845419 0.000600852 0.000858305 0.00129714 0.000600852 0.00146852 0.00094232 0.000735829 0.00146852 0.000807917 0.00164338 0.00146852 0.00094232 0.00164338 0.00148213 0.000680134 0.000457109 0.000635004 0.000451903 0.000635004 0.000451903 0.000848249 0.000476614 0.000762011 0.00146106 0.000631935 0.00142011 0.00146106 0.0021601 0.00142011 0.00215993 0.000631935 0.00142011 0.000535114 0.00143293 0.00142011 0.00215993 0.00143293 0.00215975 0.000535114 0.00143293 0.000445012 0.00132576 0.00143293 0.00215975 0.00132576 0.00188261 0.000445012 0.00132576 0.00035491 0.000977281 0.00132576 0.00188261 0.000977281 0.00135146 0.000272383 0.00146468 0.000448013 0.00165277 0.00146468 0.0013253 0.00165277 0.00187288 0.000448013 0.00165277 0.000623642 0.00157112 0.00165277 0.00187288 0.00157112 0.00215405 -2.79279e-05 0.000352117 -2.72622e-05 8.22913e-05 0.000352117 0.000732163 8.22913e-05 0.000712416 -2.72622e-05 8.22913e-05 -2.65965e-05 3.34357e-05 8.22913e-05 0.000712416 3.34357e-05 0.000656039 -1.98666e-06 1.09834e-05 -1.57195e-05 0.00011853 1.09834e-05 0.000599318 0.00011853 0.000735829 -1.57195e-05 0.00011853 -2.94523e-05 0.000389232 0.00011853 0.000735829 0.000389232 0.000807917 0.000732163 0.0014233 0.000712416 0.00148507 0.0014233 0.00212014 0.00148507 0.00218353 0.000712416 0.00148507 0.000656039 0.001482 0.00148507 0.00218353 0.001482 0.00216512 0.00123133 0.00108902 0.00105037 0.00120927 0.00108902 0.0020967 0.00120927 0.00176273 0.00105037 0.00120927 0.0013253 0.0013458 0.00120927 0.00176273 0.0013458 0.00139361 0.000130687 0.00138633 0.000200585 0.0012577 0.000200585 0.0012577 0.000272383 0.00146468 0.00106764 0.00168151 0.00102241 0.00163667 0.00168151 0.00220709 0.00163667 0.00220363 0.00102241 0.00163667 0.000977181 0.00158522 0.00163667 0.00220363 0.00158522 0.00216435 0.000130636 0.00111682 0.000294993 0.000989336 0.00111682 0.000226838 0.000989336 0.000454914 0.000294993 0.000989336 0.00045935 0.000680134 0.000989336 0.000454914 0.000680134 0.000457109 0.000457109 0.00086084 0.000451903 0.000853171 0.000451903 0.000853171 0.000476614 0.000851501 3.14101e-06 0.000231245 7.96088e-06 1.63859e-05 0.000231245 0.00045935 1.63859e-05 0.000524427 7.96088e-06 1.63859e-05 1.27807e-05 -1.61421e-05 1.63859e-05 0.000524427 -1.61421e-05 0.000509388 -3.08634e-05 0.000365574 -2.12215e-05 7.60174e-05 0.000365574 0.000762011 7.60174e-05 0.000631935 -2.12215e-05 7.60174e-05 -1.15796e-05 0.000261767 7.60174e-05 0.000631935 0.000261767 0.000535114 0.000538533 0.00122821 0.000449055 0.00119118 0.00122821 0.000759167 0.00119118 0.000750853 0.000449055 0.00119118 0.000359576 0.00120032 0.00119118 0.000750853 0.00120032 0.000694837 -1.21787e-05 5.92543e-05 -1.74179e-05 7.68075e-05 5.92543e-05 0.000130687 7.68075e-05 0.000200585 -1.74179e-05 7.68075e-05 -2.26571e-05 0.000124863 7.68075e-05 0.000200585 0.000124863 0.000272383 0.000623642 0.00157112 0.000721516 0.00143632 0.00157112 0.00215405 0.00143632 0.00217278 0.000721516 0.00143632 0.000819391 0.00146807 0.00143632 0.00217278 0.00146807 0.00211675 0.00035491 0.000977281 0.000209759 0.000746876 0.000209759 0.000746876 6.4609e-05 0.000888551 0.000977181 0.00158522 0.000854672 0.00146679 0.00158522 0.00216435 0.00146679 0.00214225 0.000854672 0.00146679 0.000732163 0.0014233 0.00146679 0.00214225 0.0014233 0.00212014 0.00224245 0.00126748 0.00222187 0.00147546 0.00126748 0.00027316 0.00147546 0.000420812 0.00222187 0.00147546 0.00220807 0.00166839 0.00147546 0.000420812 0.00166839 0.000758913 0.00027316 0.000116327 0.000420812 0.000956667 0.000116327 6.53997e-05 0.000956667 9.45033e-06 0.000420812 0.000956667 0.000758913 0.00106337 0.000956667 9.45033e-06 0.00106337 -4.64991e-05 0.00220807 0.00166839 0.00220159 0.00164809 0.00166839 0.000758913 0.00164809 0.00183931 0.00220159 0.00164809 0.00213024 0.00179825 0.00164809 0.00183931 0.00179825 0.00212179 0.000758913 0.00106337 0.00183931 0.00124159 0.00106337 -4.64991e-05 0.00124159 -0.000104037 0.00183931 0.00124159 0.00212179 0.00138312 0.00124159 -0.000104037 0.00138312 -0.000161574 0.00211245 0.00117075 0.002111 0.00125202 0.00117075 0.000264354 0.00125202 0.000176614 0.002111 0.00125202 0.00217979 0.00112872 0.00125202 0.000176614 0.00112872 0.000933427 0.000264354 0.000119011 0.000176614 0.000146725 0.000119011 9.62352e-05 0.000146725 7.63151e-05 0.000176614 0.000146725 0.000933427 0.000494911 0.000146725 7.63151e-05 0.000494911 5.63949e-05 0.000759167 0.00083419 0.000750853 0.000794654 0.000750853 0.000794654 0.000694837 0.000738138 0.000359576 0.00120032 0.000214247 0.000945989 0.00120032 0.000694837 0.000945989 0.00047008 0.000214247 0.000945989 6.89167e-05 0.000167829 0.000945989 0.00047008 0.000167829 0.000266741 0.00217979 0.00112872 0.00216629 0.00104533 0.00112872 0.000933427 0.00104533 0.00106512 0.00216629 0.00104533 0.00217167 0.000967536 0.00104533 0.00106512 0.000967536 0.00119682 -9.48043e-05 0.00013102 -0.000190521 0.000378102 0.00013102 0.000118582 0.000378102 0.000981972 -0.000190521 0.000378102 -0.000262778 0.000652431 0.000378102 0.000981972 0.000652431 0.00166488 0.00135146 0.00121841 0.000829879 0.00103737 0.000829879 0.00103737 0.000622252 0.000802637 6.4609e-05 0.000888551 3.70145e-05 0.000780681 0.000888551 0.000622252 0.000780681 0.000487507 3.70145e-05 0.000780681 9.41994e-06 0.000148338 0.000780681 0.000487507 0.000148338 0.000287256 0.000807917 0.00164338 0.000937777 0.00175052 0.00164338 0.00148213 0.00175052 0.00194681 0.000937777 0.00175052 0.00106764 0.00168151 0.00175052 0.00194681 0.00168151 0.00220709 0.00215975 0.00210794 0.00188261 0.00148877 0.00210794 0.00205614 0.00148877 0.00207341 0.00188261 0.00148877 0.00135146 0.00121841 0.00148877 0.00207341 0.00121841 0.00211245 0.00147137 0.00123214 0.000998112 0.00099773 0.00123214 0.00205515 0.00099773 0.00213731 0.000998112 0.00099773 0.000759167 0.00083419 0.000600852 0.000858305 0.00094232 0.00100823 0.00094232 0.00100823 0.00148213 0.00123062 0.00100823 0.00220159 0.00123062 0.00213024 0.0013253 0.0013458 0.00187288 0.00160417 0.00187288 0.00160417 0.00215405 0.00169185 0.00230452 0.00131782 0.00229837 0.00132886 0.00131782 0.000303075 0.00132886 0.000332368 0.00229837 0.00132886 0.00225086 0.00132688 0.00132886 0.000332368 0.00132688 0.000375737 0.000226838 0.000544663 0.000454914 0.00079575 0.000454914 0.00079575 0.000457109 0.00086084 0.000303075 0.000172445 0.000332368 0.000189504 0.000172445 4.86675e-05 0.000189504 5.39421e-05 0.000332368 0.000189504 0.000375737 0.000210901 0.000189504 5.39421e-05 0.000210901 5.92167e-05 0.00225086 0.00132688 0.00224511 0.00128944 0.00132688 0.000375737 0.00128944 0.000299697 0.00224511 0.00128944 0.00224245 0.00126748 0.00128944 0.000299697 0.00126748 0.00027316 0.000375737 0.000210901 0.000299697 0.0001864 0.000210901 5.92167e-05 0.0001864 6.23082e-05 0.000299697 0.0001864 0.00027316 0.000116327 0.0001864 6.23082e-05 0.000116327 6.53997e-05 1.70233e-05 0.000426384 7.38299e-05 0.000821667 0.000426384 -0.000262778 0.000821667 -8.56811e-07 7.38299e-05 0.000821667 0.000130636 0.00111682 0.000821667 -8.56811e-07 0.00111682 0.000226838 0.00215405 0.00169185 0.00217278 0.00169001 0.00169185 0.0013483 0.00169001 0.00178679 0.00217278 0.00169001 0.00211675 0.00158746 0.00169001 0.00178679 0.00158746 0.00217237 0.00211675 0.00158746 0.00186745 0.00151528 0.00186745 0.00151528 0.00161816 0.00186131 0.00151528 0.00217354 0.00186131 0.00210447 0.000622252 0.000802637 0.000487507 0.000642691 0.000487507 0.000642691 0.000287256 0.000508734 0.000152829 0.000363112 0.000141758 0.00123122 0.000363112 0.000573394 0.00123122 0.00107179 0.000141758 0.00123122 0.000130687 0.00138633 0.00123122 0.00107179 0.00138633 0.00123133 3.01563e-05 0.000615327 9.51703e-06 0.000590961 0.000615327 0.0012005 0.000590961 0.00116489 9.51703e-06 0.000590961 -1.11222e-05 0.000559075 0.000590961 0.00116489 0.000559075 0.00112927 0.00212014 0.00207705 0.00218353 0.00165511 0.00207705 0.00203397 0.00165511 0.0020446 0.00165511 0.0020446 0.00157519 0.00205329 0.00148213 0.00123062 0.00194681 0.00145885 0.00123062 0.00213024 0.00145885 0.00209795 0.00145885 0.00209795 0.00157189 0.00206639 0.00157189 0.00206639 0.00165014 0.00205203 0.00220363 0.00165014 0.00216435 0.00210118 0.00165014 0.00205203 0.00210118 0.00203801 0.00157519 0.00205329 0.00144674 0.00207566 0.00195143 0.00144674 0.00147137 0.00123214 0.00144674 0.00207566 0.00123214 0.00205515 0.0020967 0.00115049 0.00176273 0.00122644 0.00115049 0.000240354 0.00122644 0.000401572 0.00176273 0.00122644 0.00139361 0.0012342 0.00122644 0.000401572 0.0012342 0.000770442 0.000240354 0.000122815 0.000401572 0.000969637 0.000122815 0.000130754 0.000969637 5.9052e-05 0.000401572 0.000969637 0.000770442 0.00109753 0.000969637 5.9052e-05 0.00109753 -1.26501e-05 0.000694837 0.000738138 0.00047008 0.000662058 0.00047008 0.000662058 0.000266741 0.000420679 1.46485e-05 -2.19452e-05 1.58359e-05 0.000118462 -2.19452e-05 -9.48043e-05 0.000118462 -0.000190521 1.58359e-05 0.000118462 1.70233e-05 0.000426384 -8.56811e-07 0.000514455 0.000226838 0.000544663 0.000770442 0.00109753 0.00197671 0.0012112 0.00109753 -1.26501e-05 0.0012112 -8.11063e-05 0.00197671 0.0012112 0.002088 0.00135924 0.0012112 -8.11063e-05 0.00135924 -0.000149563 0.000287256 0.000508734 8.65493e-05 0.000416292 8.65493e-05 0.000416292 -0.000114158 0.0004148 0.00222395 0.00124497 0.00232955 0.00134959 0.00124497 0.000244873 0.00134959 0.000333164 0.00232955 0.00134959 0.00230595 0.00141289 0.00134959 0.000333164 0.00141289 0.000489558 -0.000114158 0.0004148 -0.000108842 0.000613891 -0.000108842 0.000613891 -0.000103526 0.000879671 0.000244873 0.000116198 0.000333164 0.000204126 0.000116198 9.53731e-05 0.000204126 6.23554e-05 0.000333164 0.000204126 0.000489558 0.00025296 0.000204126 6.23554e-05 0.00025296 2.93378e-05 -5.75856e-05 0.000897671 0.000257904 0.00073931 0.000257904 0.00073931 0.000573394 0.000731227 0.00230595 0.00141289 0.00146513 0.00087659 0.00141289 0.000489558 0.00087659 0.000272335 0.00146513 0.00087659 0.000386228 0.000503902 0.00087659 0.000272335 0.000503902 0.000621575 0.000489558 0.00025296 0.000272335 0.000130536 0.00025296 2.93378e-05 0.000130536 -6.89525e-06 0.000272335 0.000130536 0.000621575 0.000289223 0.000130536 -6.89525e-06 0.000289223 -4.31283e-05 0.000266741 0.000420679 6.72808e-05 0.000271761 0.000420679 0.000386228 0.000271761 0.000219555 6.72808e-05 0.000271761 -0.00013218 0.000195388 0.000271761 0.000219555 0.000195388 5.28813e-05 2.23193e-05 -5.49302e-05 1.84839e-05 -3.84229e-05 -5.49302e-05 -0.00013218 -3.84229e-05 -0.000112313 1.84839e-05 -3.84229e-05 1.46485e-05 -2.19452e-05 -3.84229e-05 -0.000112313 -2.19452e-05 -9.48043e-05 -0.00013218 0.000195388 -0.000112313 0.000125292 0.000195388 5.28813e-05 0.000125292 8.57318e-05 -0.000112313 0.000125292 -9.48043e-05 0.00013102 0.000125292 8.57318e-05 0.00013102 0.000118582 0.00205329 0.00174496 0.00207566 0.00158937 0.00174496 0.00210308 0.00158937 0.00185558 0.00207566 0.00158937 0.00205515 0.00160535 0.00158937 0.00185558 0.00160535 0.000806377 0.00210308 0.0013818 0.00185558 0.00126031 0.0013818 -0.000145595 0.00126031 -8.37787e-05 0.00185558 0.00126031 0.000806377 0.00109931 0.00126031 -8.37787e-05 0.00109931 -2.19622e-05 0.00205515 0.00160535 0.00213731 0.00142792 0.00160535 0.000806377 0.00142792 0.000428068 0.00213731 0.00142792 0.00222395 0.00124497 0.00142792 0.000428068 0.00124497 0.000244873 0.000806377 0.00109931 0.000428068 0.000974684 0.00109931 -2.19622e-05 0.000974684 3.67054e-05 0.000428068 0.000974684 0.000244873 0.000116198 0.000974684 3.67054e-05 0.000116198 9.53731e-05 0.00210447 0.00175216 0.00209722 0.00172541 0.00175216 0.00204677 0.00172541 0.00201758 0.00209722 0.00172541 0.00208996 0.00170049 0.00172541 0.00201758 0.00170049 0.00199018 0.00204677 0.00134992 0.00201758 0.00133524 0.00134992 -0.000134421 0.00133524 -0.000135236 0.00201758 0.00133524 0.00199018 0.00132156 0.00133524 -0.000135236 0.00132156 -0.000136051 0.00208996 0.00170049 0.00208265 0.00172513 0.00170049 0.00199018 0.00172513 0.0020658 0.00208265 0.00172513 0.00207534 0.00173384 0.00172513 0.0020658 0.00173384 0.00208687 0.00199018 0.00132156 0.0020658 0.0013579 0.00132156 -0.000136051 0.0013579 -0.000135099 0.0020658 0.0013579 0.00208687 0.00137727 0.0013579 -0.000135099 0.00137727 -0.000134148 0.00207534 0.00173384 0.00206574 0.0015544 0.00173384 0.00208687 0.0015544 0.00178434 0.00206574 0.0015544 0.00205614 0.00153725 0.0015544 0.00178434 0.00153725 0.000694798 0.00208687 0.00137727 0.00178434 0.00122804 0.00137727 -0.000134148 0.00122804 -7.94e-05 0.00178434 0.00122804 0.000694798 0.0010431 0.00122804 -7.94e-05 0.0010431 -2.4652e-05 0.00205614 0.00153725 0.00207341 0.00136406 0.00153725 0.000694798