# vtk DataFile Version 3.0
#This file was generated by the deal.II library on 2023/3/1 at 3:10:15
ASCII
DATASET UNSTRUCTURED_GRID

FIELD FieldData 2
CYCLE 1 1 int
141
TIME 1 1 double
0.282
POINTS 12520 double
-1.41421 1.22465e-16 1.41421
-1.84776 1.22465e-16 0.765367
-1.46804 0.382683 1.46804
-1.91809 0.382683 0.794497
-2.11836 0.707107 0.877452
-2.29289 0.707107 2.80798e-16
-2.41809 0.92388 1.0016
-2.61732 0.92388 3.20529e-16
2.11836 -0.707107 0.877452
1.62132 -0.707107 1.62132
1.91809 -0.382683 0.794497
1.46804 -0.382683 1.46804
-2.61732 -0.92388 3.20529e-16
-2.41809 -0.92388 -1.0016
-2.29289 -0.707107 2.80798e-16
-2.11836 -0.707107 -0.877452
-2.11836 -0.707107 0.877452
-2.29289 -0.707107 2.80798e-16
-1.91809 -0.382683 0.794497
-2.07612 -0.382683 2.54251e-16
-2.62132 -0.707107 2.62132
-3.42492 -0.707107 1.41865
-2.39192 -0.92388 2.39192
-3.12519 -0.92388 1.2945
2.11836 0.707107 -0.877452
2.29289 0.707107 0
2.41809 0.92388 -1.0016
2.61732 0.92388 0
1.85072 0.92388 -1.85072
2.41809 0.92388 -1.0016
2.12132 1 -2.12132
2.77164 1 -1.14805
2.41809 0.92388 -1.0016
2.61732 0.92388 0
2.77164 1 -1.14805
3 1 0
2.12132 1 -2.12132
2.77164 1 -1.14805
2.39192 0.92388 -2.39192
3.12519 0.92388 -1.2945
2.77164 1 -1.14805
3 1 0
3.12519 0.92388 -1.2945
3.38268 0.92388 0
3.12519 0.92388 -1.2945
3.38268 0.92388 0
3.42492 0.707107 -1.41865
3.70711 0.707107 0
1.91809 0.382683 -0.794497
2.07612 0.382683 0
2.11836 0.707107 -0.877452
2.29289 0.707107 0
3.12519 -0.92388 1.2945
2.39192 -0.92388 2.39192
2.77164 -1 1.14805
2.12132 -1 2.12132
-1.53073 0 3.69552
-2.22228 0 3.32588
-1.52338 -0.19509 3.67777
-2.21161 -0.19509 3.3099
-2.22228 0 3.32588
-2.82843 0 2.82843
-2.21161 -0.19509 3.3099
-2.81484 -0.19509 2.81484
-1.52338 -0.19509 3.67777
-2.21161 -0.19509 3.3099
-1.5016 -0.382683 3.62519
-2.17999 -0.382683 3.26259
-2.21161 -0.19509 3.3099
-2.81484 -0.19509 2.81484
-2.17999 -0.382683 3.26259
-2.7746 -0.382683 2.7746
-1.84776 1.22465e-16 0.765367
-1.96157 1.22465e-16 0.390181
-1.86551 0.19509 0.77272
-1.98042 0.19509 0.393929
-1.86551 0.19509 0.77272
-1.98042 0.19509 0.393929
-1.91809 0.382683 0.794497
-2.03623 0.382683 0.405031
-1.98042 0.19509 0.393929
-2.01921 0.19509 2.47282e-16
-2.03623 0.382683 0.405031
-2.07612 0.382683 2.54251e-16
3 -1 0
2.94236 -1 0.585271
2.80491 -0.980785 0
2.75101 -0.980785 0.547211
2.80491 -0.980785 0
2.75101 -0.980785 0.547211
2.61732 -0.92388 0
2.56703 -0.92388 0.510613
2.61732 -0.92388 0
2.56703 -0.92388 0.510613
2.44443 -0.83147 0
2.39746 -0.83147 0.476885
2.44443 -0.83147 0
2.39746 -0.83147 0.476885
2.29289 -0.707107 0
2.24884 -0.707107 0.447321
2.39746 -0.83147 0.476885
2.25836 -0.83147 0.935443
2.24884 -0.707107 0.447321
2.11836 -0.707107 0.877452
-1.91809 0.382683 0.794497
-2.03623 0.382683 0.405031
-2.00346 0.55557 0.829861
-2.12686 0.55557 0.423059
-2.03623 0.382683 0.405031
-2.07612 0.382683 2.54251e-16
-2.12686 0.55557 0.423059
-2.16853 0.55557 2.65568e-16
-2.00346 0.55557 0.829861
-2.12686 0.55557 0.423059
-2.11836 0.707107 0.877452
-2.24884 0.707107 0.447321
-2.12686 0.55557 0.423059
-2.16853 0.55557 2.65568e-16
-2.24884 0.707107 0.447321
-2.29289 0.707107 2.80798e-16
-1.46804 0.382683 1.46804
-1.72623 0.382683 1.15343
-1.53338 0.55557 1.53338
-1.80307 0.55557 1.20477
-1.72623 0.382683 1.15343
-1.91809 0.382683 0.794497
-1.80307 0.55557 1.20477
-2.00346 0.55557 0.829861
-1.53338 0.55557 1.53338
-1.80307 0.55557 1.20477
-1.62132 0.707107 1.62132
-1.90647 0.707107 1.27386
-1.80307 0.55557 1.20477
-2.00346 0.55557 0.829861
-1.90647 0.707107 1.27386
-2.11836 0.707107 0.877452
2.29289 0.707107 0
2.24884 0.707107 0.447321
2.44443 0.83147 0
2.39746 0.83147 0.476885
2.24884 0.707107 0.447321
2.11836 0.707107 0.877452
2.39746 0.83147 0.476885
2.25836 0.83147 0.935443
2.44443 0.83147 0
2.39746 0.83147 0.476885
2.61732 0.92388 0
2.56703 0.92388 0.510613
2.39746 0.83147 0.476885
2.25836 0.83147 0.935443
2.56703 0.92388 0.510613
2.41809 0.92388 1.0016
2 0 0
1.96157 1.22465e-16 0.390181
2.01921 0.19509 0
1.98042 0.19509 0.393929
1.96157 1.22465e-16 0.390181
1.84776 1.22465e-16 0.765367
1.98042 0.19509 0.393929
1.86551 0.19509 0.77272
2.01921 0.19509 0
1.98042 0.19509 0.393929
2.07612 0.382683 0
2.03623 0.382683 0.405031
1.98042 0.19509 0.393929
1.86551 0.19509 0.77272
2.03623 0.382683 0.405031
1.91809 0.382683 0.794497
-1.85072 -0.92388 1.85072
-2.17622 -0.92388 1.4541
-1.72847 -0.83147 1.72847
-2.03247 -0.83147 1.35805
-2.17622 -0.92388 1.4541
-2.41809 -0.92388 1.0016
-2.03247 -0.83147 1.35805
-2.25836 -0.83147 0.935443
-1.72847 -0.83147 1.72847
-2.03247 -0.83147 1.35805
-1.62132 -0.707107 1.62132
-1.90647 -0.707107 1.27386
-2.03247 -0.83147 1.35805
-2.25836 -0.83147 0.935443
-1.90647 -0.707107 1.27386
-2.11836 -0.707107 0.877452
-1.62132 -0.707107 1.62132
-1.90647 -0.707107 1.27386
-1.53338 -0.55557 1.53338
-1.80307 -0.55557 1.20477
-1.90647 -0.707107 1.27386
-2.11836 -0.707107 0.877452
-1.80307 -0.55557 1.20477
-2.00346 -0.55557 0.829861
-1.53338 -0.55557 1.53338
-1.80307 -0.55557 1.20477
-1.46804 -0.382683 1.46804
-1.72623 -0.382683 1.15343
-1.80307 -0.55557 1.20477
-2.00346 -0.55557 0.829861
-1.72623 -0.382683 1.15343
-1.91809 -0.382683 0.794497
2.41809 0.92388 1.0016
2.17622 0.92388 1.4541
2.5914 0.980785 1.07339
2.3322 0.980785 1.55832
2.17622 0.92388 1.4541
1.85072 0.92388 1.85072
2.3322 0.980785 1.55832
1.98337 0.980785 1.98337
2.5914 0.980785 1.07339
2.3322 0.980785 1.55832
2.77164 1 1.14805
2.49441 1 1.66671
2.3322 0.980785 1.55832
1.98337 0.980785 1.98337
2.49441 1 1.66671
2.12132 1 2.12132
-2.12132 -1 2.12132
-2.49441 -1 1.66671
-1.98337 -0.980785 1.98337
-2.3322 -0.980785 1.55832
-2.49441 -1 1.66671
-2.77164 -1 1.14805
-2.3322 -0.980785 1.55832
-2.5914 -0.980785 1.07339
-1.98337 -0.980785 1.98337
-2.3322 -0.980785 1.55832
-1.85072 -0.92388 1.85072
-2.17622 -0.92388 1.4541
-2.3322 -0.980785 1.55832
-2.5914 -0.980785 1.07339
-2.17622 -0.92388 1.4541
-2.41809 -0.92388 1.0016
-1.85072 0.92388 1.85072
-2.17622 0.92388 1.4541
-1.98337 0.980785 1.98337
-2.3322 0.980785 1.55832
-2.17622 0.92388 1.4541
-2.41809 0.92388 1.0016
-2.3322 0.980785 1.55832
-2.5914 0.980785 1.07339
-1.98337 0.980785 1.98337
-2.3322 0.980785 1.55832
-2.12132 1 2.12132
-2.49441 1 1.66671
-2.3322 0.980785 1.55832
-2.5914 0.980785 1.07339
-2.49441 1 1.66671
-2.77164 1 1.14805
-1.5016 -0.382683 3.62519
-2.17999 -0.382683 3.26259
-1.46624 -0.55557 3.53982
-2.12865 -0.55557 3.18575
-2.17999 -0.382683 3.26259
-2.7746 -0.382683 2.7746
-2.12865 -0.55557 3.18575
-2.70926 -0.55557 2.70926
-1.46624 -0.55557 3.53982
-2.12865 -0.55557 3.18575
-1.41865 -0.707107 3.42492
-2.05956 -0.707107 3.08235
-2.12865 -0.55557 3.18575
-2.70926 -0.55557 2.70926
-2.05956 -0.707107 3.08235
-2.62132 -0.707107 2.62132
-2.41809 -0.92388 1.0016
-2.56703 -0.92388 0.510613
-2.25836 -0.83147 0.935443
-2.39746 -0.83147 0.476885
-2.56703 -0.92388 0.510613
-2.61732 -0.92388 3.20529e-16
-2.39746 -0.83147 0.476885
-2.44443 -0.83147 2.99356e-16
-2.25836 -0.83147 0.935443
-2.39746 -0.83147 0.476885
-2.11836 -0.707107 0.877452
-2.24884 -0.707107 0.447321
-2.39746 -0.83147 0.476885
-2.44443 -0.83147 2.99356e-16
-2.24884 -0.707107 0.447321
-2.29289 -0.707107 2.80798e-16
1.84776 1.22465e-16 0.765367
1.66294 1.22465e-16 1.11114
1.86551 0.19509 0.77272
1.67892 0.19509 1.12182
1.66294 1.22465e-16 1.11114
1.41421 1.22465e-16 1.41421
1.67892 0.19509 1.12182
1.4278 0.19509 1.4278
1.86551 0.19509 0.77272
1.67892 0.19509 1.12182
1.91809 0.382683 0.794497
1.72623 0.382683 1.15343
1.67892 0.19509 1.12182
1.4278 0.19509 1.4278
1.72623 0.382683 1.15343
1.46804 0.382683 1.46804
-1.62132 0.707107 1.62132
-1.90647 0.707107 1.27386
-1.72847 0.83147 1.72847
-2.03247 0.83147 1.35805
-1.90647 0.707107 1.27386
-2.11836 0.707107 0.877452
-2.03247 0.83147 1.35805
-2.25836 0.83147 0.935443
-1.72847 0.83147 1.72847
-2.03247 0.83147 1.35805
-1.85072 0.92388 1.85072
-2.17622 0.92388 1.4541
-2.03247 0.83147 1.35805
-2.25836 0.83147 0.935443
-2.17622 0.92388 1.4541
-2.41809 0.92388 1.0016
2.62132 -0.707107 -2.62132
3.08235 -0.707107 -2.05956
2.51417 -0.83147 -2.51417
2.95635 -0.83147 -1.97537
3.08235 -0.707107 -2.05956
3.42492 -0.707107 -1.41865
2.95635 -0.83147 -1.97537
3.28492 -0.83147 -1.36066
2.51417 -0.83147 -2.51417
2.95635 -0.83147 -1.97537
2.39192 -0.92388 -2.39192
2.8126 -0.92388 -1.87932
2.95635 -0.83147 -1.97537
3.28492 -0.83147 -1.36066
2.8126 -0.92388 -1.87932
3.12519 -0.92388 -1.2945
1.62132 -0.707107 -1.62132
1.90647 -0.707107 -1.27386
1.53338 -0.55557 -1.53338
1.80307 -0.55557 -1.20477
1.90647 -0.707107 -1.27386
2.11836 -0.707107 -0.877452
1.80307 -0.55557 -1.20477
2.00346 -0.55557 -0.829861
1.53338 -0.55557 -1.53338
1.80307 -0.55557 -1.20477
1.46804 -0.382683 -1.46804
1.72623 -0.382683 -1.15343
1.80307 -0.55557 -1.20477
2.00346 -0.55557 -0.829861
1.72623 -0.382683 -1.15343
1.91809 -0.382683 -0.794497
2.61732 0.92388 0
2.56703 0.92388 0.510613
2.80491 0.980785 0
2.75101 0.980785 0.547211
2.56703 0.92388 0.510613
2.41809 0.92388 1.0016
2.75101 0.980785 0.547211
2.5914 0.980785 1.07339
2.80491 0.980785 0
2.75101 0.980785 0.547211
3 1 0
2.94236 1 0.585271
-1.41865 -0.707107 3.42492
-2.05956 -0.707107 3.08235
-1.36066 -0.83147 3.28492
-1.97537 -0.83147 2.95635
-2.05956 -0.707107 3.08235
-2.62132 -0.707107 2.62132
-1.97537 -0.83147 2.95635
-2.51417 -0.83147 2.51417
-1.36066 -0.83147 3.28492
-1.97537 -0.83147 2.95635
-1.2945 -0.92388 3.12519
-1.87932 -0.92388 2.8126
-1.97537 -0.83147 2.95635
-2.51417 -0.83147 2.51417
-1.87932 -0.92388 2.8126
-2.39192 -0.92388 2.39192
-0.585271 -1 2.94236
-1.14805 -1 2.77164
-0.547211 -0.980785 2.75101
-1.07339 -0.980785 2.5914
-2.5914 -0.980785 1.07339
-2.75101 -0.980785 0.547211
-2.41809 -0.92388 1.0016
-2.56703 -0.92388 0.510613
2.07612 0.382683 0
2.03623 0.382683 0.405031
2.16853 0.55557 0
2.12686 0.55557 0.423059
2.03623 0.382683 0.405031
1.91809 0.382683 0.794497
2.12686 0.55557 0.423059
2.00346 0.55557 0.829861
2.16853 0.55557 0
2.12686 0.55557 0.423059
2.29289 0.707107 0
2.24884 0.707107 0.447321
2.12686 0.55557 0.423059
2.00346 0.55557 0.829861
[...]
POINT_DATA 12520
SCALARS U double 1
LOOKUP_TABLE default
0.00608887 0.00719149 0.00588484 0.00710375 0.00671033 0.0074788 0.00592875 0.00627911 0.00757795 0.00727892 0.00770741 0.00761168 0.0064401 0.00730602 0.00765945 0.00772958 0.00664913 0.00765945 0.00706732 0.00838343 0.00390092 0.00350696 0.00397683 0.00414136 0.00679316 0.00772684 0.0059463 0.00668715 0.00490644 0.0059463 0.00423492 0.00499363 0.0059463 0.00668715 0.00499363 0.00567309 0.00423492 0.00499363 0.00376287 0.00435221 0.00499363 0.00567309 0.00435221 0.00480141 0.00435221 0.00480141 0.00375916 0.00410461 0.0072161 0.00845275 0.00679316 0.00772684 0.00527968 0.00593123 0.00662171 0.00650327 0.00506104 0.00404906 0.00502241 0.00400868 0.00404906 0.00398091 0.00400868 0.00395623 0.00502241 0.00400868 0.00498762 0.00398113 0.00400868 0.00395623 0.00398113 0.00393064 0.00719149 0.00803428 0.00714762 0.00797789 0.00714762 0.00797789 0.00710375 0.00780188 0.00797789 0.00852952 0.00780188 0.00830906 0.00546802 0.00614198 0.00597941 0.00664619 0.00597941 0.00664619 0.00655678 0.00715771 0.00655678 0.00715771 0.0071686 0.0076098 0.0071686 0.0076098 0.00773218 0.00797179 0.0076098 0.00758558 0.00797179 0.00757795 0.00710375 0.00780188 0.00696267 0.0074958 0.00780188 0.00830906 0.0074958 0.00796968 0.00696267 0.0074958 0.00671033 0.00709457 0.0074958 0.00796968 0.00709457 0.0074788 0.00588484 0.00649429 0.00565954 0.00619704 0.00649429 0.00710375 0.00619704 0.00696267 0.00565954 0.00619704 0.00536424 0.0059195 0.00619704 0.00696267 0.0059195 0.00671033 0.00772684 0.00786506 0.00720699 0.00754252 0.00786506 0.00748556 0.00754252 0.00749702 0.00720699 0.00754252 0.00668715 0.00719766 0.00754252 0.00749702 0.00719766 0.00763084 0.00868492 0.00855577 0.00862925 0.00851129 0.00855577 0.00782359 0.00851129 0.00785621 0.00862925 0.00851129 0.00845275 0.00837338 0.00851129 0.00785621 0.00837338 0.00777538 0.00483349 0.00518753 0.00509288 0.00549534 0.00518753 0.00577693 0.00549534 0.00626948 0.00509288 0.00549534 0.00536099 0.00580486 0.00549534 0.00626948 0.00580486 0.00664913 0.00536099 0.00580486 0.00561833 0.00604744 0.00580486 0.00664913 0.00604744 0.00685822 0.00561833 0.00604744 0.00586524 0.00625472 0.00604744 0.00685822 0.00625472 0.00706732 0.00763084 0.00733216 0.00763335 0.00727087 0.00733216 0.00696858 0.00727087 0.00696947 0.00763335 0.00727087 0.00722068 0.00694784 0.00727087 0.00696947 0.00694784 0.00678828 0.00438714 0.0045122 0.00457433 0.0048673 0.0045122 0.0048069 0.0048673 0.00525139 0.00457433 0.0048673 0.00483349 0.00518753 0.0048673 0.00525139 0.00518753 0.00577693 0.00456588 0.00502996 0.00420752 0.00456213 0.00502996 0.00592875 0.00456213 0.00543496 0.00420752 0.00456213 0.00396156 0.00420123 0.00456213 0.00543496 0.00420123 0.00501745 0.00498762 0.00398113 0.00501854 0.0039863 0.00398113 0.00393064 0.0039863 0.00391298 0.00501854 0.0039863 0.00507656 0.0040121 0.0039863 0.00391298 0.0040121 0.00390092 0.00577693 0.00642087 0.00626948 0.00688559 0.00642087 0.0064401 0.00688559 0.00704978 0.00626948 0.00688559 0.00664913 0.00715429 0.00688559 0.00704978 0.00715429 0.00765945 0.00782359 0.00770236 0.00785621 0.00772049 0.00770236 0.00789632 0.00772049 0.00778969 0.00785621 0.00772049 0.00777538 0.0076448 0.00772049 0.00778969 0.0076448 0.00765606 0.00536424 0.0059195 0.00499547 0.00552306 0.0059195 0.00671033 0.00552306 0.00631954 0.00499547 0.00552306 0.00456588 0.00502996 0.00552306 0.00631954 0.00502996 0.00592875 0.00414151 0.00387382 0.0040883 0.00393374 0.00387382 0.00355814 0.00393374 0.00381007 0.0040883 0.00393374 0.00404262 0.00404194 0.00393374 0.00381007 0.00404194 0.00408838 0.00527451 0.0057843 0.00546972 0.00600621 0.0057843 0.00636395 0.00600621 0.006573 0.00546972 0.00600621 0.00567614 0.00618269 0.00600621 0.006573 0.00618269 0.00679635 0.00668715 0.00719766 0.00618012 0.00682796 0.00719766 0.00763084 0.00682796 0.00763335 0.00618012 0.00682796 0.00567309 0.00640765 0.00507656 0.0040121 0.00527627 0.00412901 0.0040121 0.00390092 0.00412901 0.00393888 0.00527627 0.00412901 0.00549583 0.00427653 0.00412901 0.00393888 0.00427653 0.00397683 0.00592941 0.0058445 0.0063001 0.0061042 0.00525139 0.00596395 0.00577693 0.00642087 0.00845275 0.00837338 0.0080898 0.00815831 0.00837338 0.00777538 0.00815831 0.0076153 0.0080898 0.00815831 0.00772684 0.00786506 0.00815831 0.0076153 0.00786506 0.00748556 0.00596318 0.00679316 0.00564548 0.00636973 0.00519745 0.00564548 0.00490644 0.00542637 0.00564548 0.00636973 0.00542637 0.0059463 0.00770741 0.00765955 0.00778038 0.00764402 0.00765955 0.00761168 0.00764402 0.00788627 0.00778038 0.00764402 0.00782359 0.00770236 0.00764402 0.00788627 0.00770236 0.00789632 0.00777538 0.0076448 0.0076153 0.0074928 0.0076448 0.00765606 0.0074928 0.00745441 0.0076153 0.0074928 0.00748556 0.00733768 0.0074928 0.00745441 0.00733768 0.00718159 0.00549583 0.00427653 0.00574435 0.0044678 0.00427653 0.00397683 0.0044678 0.00419127 0.00574435 0.0044678 0.0058445 0.00472777 0.0044678 0.00419127 0.00472777 0.00438714 0.00797179 0.00757795 0.00823844 0.00764268 0.00823844 0.00764268 0.00841064 0.00770741 0.00567309 0.00640765 0.00523725 0.00592918 0.00523725 0.00592918 0.00480141 0.00537314 0.00832005 0.00628514 0.00822207 0.00611716 0.00628514 0.00590185 0.00611716 0.005733 0.00822207 0.00611716 0.00779395 0.00596636 0.00611716 0.005733 0.00596636 0.00549685 0.00772958 0.00740672 0.00763446 0.00736937 0.00763446 0.00736937 0.00756398 0.00744287 0.00779395 0.00596636 0.00697038 0.00564477 0.00596636 0.00549685 0.00564477 0.00519745 0.00697038 0.00564477 0.00647763 0.00520959 0.00564477 0.00519745 0.00520959 0.00490644 0.00480141 0.00537314 0.00445301 0.00480865 0.00537314 0.00548791 0.00480865 0.0048012 0.00445301 0.00480865 0.00410461 0.00443272 0.00480865 0.0048012 0.00443272 0.00433378 0.00592875 0.00610393 0.00543496 0.00612851 0.00610393 0.00627911 0.00612851 0.00570663 0.00543496 0.00612851 0.00501745 0.00578588 0.00612851 0.00570663 0.00578588 0.00526472 0.00841064 0.00770741 0.00850223 0.00778038 0.00830906 0.00817242 0.00796968 0.00795082 0.00817242 0.00749742 0.00795082 0.00734572 0.00795082 0.00734572 0.00763625 0.00711538 0.00723645 0.00817892 0.00728483 0.00813606 0.00817892 0.00868492 0.00813606 0.00862925 0.00728483 0.00813606 0.0072161 0.00783443 0.00813606 0.00862925 0.00783443 0.00845275 0.00393064 0.00391223 0.00391298 0.00383466 0.00391223 0.00312327 0.00383466 0.00326804 0.00391298 0.00383466 0.00390092 0.00370394 0.00383466 0.00326804 0.00370394 0.00350696 0.00748556 0.00733768 0.00749702 0.00729602 0.00749702 0.00729602 0.00763084 0.00733216 0.00661833 0.00667946 0.00639526 0.00617668 0.00346141 0.00280118 0.00326783 0.00303894 0.00326783 0.00303894 0.0033036 0.00326665 0.00838596 0.00759654 0.00832359 0.00757712 0.00852952 0.00832359 0.00830906 0.00817242 0.00629346 0.00723645 0.0063535 0.00728483 0.00602184 0.0063535 0.00590185 0.00631757 0.0063535 0.00728483 0.00631757 0.0072161 0.00414136 0.00462532 0.00447283 0.00512053 0.00462532 0.00438683 0.00512053 0.004867 0.00512053 0.004867 0.00553964 0.00534737 0.00771743 0.00844813 0.00768885 0.00820115 0.00768885 0.00820115 0.00752202 0.00788985 0.00631757 0.0072161 0.00621255 0.00700463 0.00621255 0.00700463 0.00596318 0.00679316 0.00613634 0.00608887 0.00602739 0.00598685 0.00602739 0.00598685 0.00588181 0.00588484 0.00506164 0.00409575 0.00503524 0.00409699 0.00409575 0.00408485 0.00409699 0.00412247 0.00503524 0.00409699 0.00501046 0.0040981 0.00409699 0.00412247 0.0040981 0.00414901 0.00586524 0.00625472 0.00603921 0.00641512 0.00625472 0.00706732 0.00641512 0.00715791 0.00603921 0.00641512 0.00608887 0.00664018 0.00641512 0.00715791 0.00664018 0.00719149 0.00501046 0.0040981 0.00501656 0.00410512 0.0040981 0.00414901 0.00410512 0.00415276 0.00501656 0.00410512 0.00504523 0.00411855 0.00410512 0.00415276 0.00411855 0.00414151 0.00495419 0.00574355 0.00543199 0.00621279 0.00574355 0.00546802 0.00621279 0.00597941 0.00765945 0.00769452 0.00802144 0.00803156 0.00769452 0.00772958 0.00803156 0.00763446 0.00802144 0.00803156 0.00838343 0.00824006 0.00803156 0.00763446 0.00824006 0.00756398 0.00335579 0.0036905 0.00301428 0.00344882 0.0036905 0.00388536 0.00344882 0.00355321 0.00301428 0.00344882 0.00283651 0.0032046 0.00344882 0.00355321 0.0032046 0.00331265 0.00433378 0.00535136 0.00389786 0.00530167 0.00389786 0.00530167 0.00348605 0.00522496 0.00397683 0.00405909 0.00419127 0.00419367 0.00405909 0.00414136 0.00419367 0.00447283 0.00419127 0.00419367 0.00438714 0.0045122 0.00419367 0.00447283 0.0045122 0.0048069 0.00326251 0.0051806 0.00317805 0.00514739 0.00283651 0.0032046 0.00282144 0.00291112 0.0032046 0.00331265 0.00291112 0.00315083 0.00291112 0.00315083 0.00265791 0.00305407 0.00392642 0.00479757 0.00438683 0.00535345 0.00653385 0.00569964 0.00645764 0.00528659 0.00438683 0.00535345 0.004867 0.00579999 0.004867 0.00579999 0.00534737 0.00619567 0.00363699 0.00420353 0.00437179 0.00456172 0.0058445 0.00472777 0.0061042 0.00502999 0.00472777 0.00438714 0.00502999 0.00457433 0.00502999 0.00457433 0.00517755 0.00483349 0.00797025 0.00828111 0.0085238 0.00867092 0.0085238 0.00867092 0.00902406 0.00899107 0.00329025 0.0040316 0.00326253 0.00403263 0.00326253 0.00403263 0.00339616 0.00404395 0.00339616 0.00404395 0.0036257 0.00408553 0.0036257 0.00408553 0.00390801 0.00429619 0.00408553 0.00368739 0.00429619 0.00418124 0.00350696 0.00341729 0.00382416 0.0040278 0.00341729 0.00355126 0.0040278 0.00392642 0.00382416 0.0040278 0.00414136 0.00462532 0.0040278 0.00392642 0.00462532 0.00438683 0.00394976 0.00492161 0.00449379 0.00511105 0.00449379 0.00511105 0.00513207 0.00547085 0.00653101 0.00675511 0.0061451 0.00645619 0.00675511 0.00697958 0.00645619 0.00661373 0.0061451 0.00645619 0.00569078 0.00608378 0.00645619 0.00661373 0.00608378 0.00619262 0.0074788 0.00763625 0.00687896 0.00728225 0.00763625 0.00711538 0.00728225 0.00684144 0.00687896 0.00728225 0.00627911 0.00693248 0.00711538 0.00706939 0.00684144 0.0069268 0.00706939 0.00741393 0.0069268 0.00723219 0.00684144 0.0069268 0.00653101 0.00675511 0.0069268 0.00723219 0.00675511 0.00697958 0.00410461 0.00443272 0.00385131 0.00424715 0.00443272 0.00433378 0.00424715 0.00389786 0.00385131 0.00424715 0.003614 0.00415879 0.00424715 0.00389786 0.00415879 0.00348605 0.00526472 0.00599691 0.00492432 0.00534982 0.00492432 0.00534982 0.00462281 0.00468694 0.00534982 0.00517575 0.00468694 0.00462005 0.003614 0.00415879 0.00340789 0.00407817 0.00340789 0.00407817 0.00329025 0.0040316 0.00506301 0.00422976 0.00527193 0.00411516 0.00422976 0.00399347 0.00411516 0.00399719 0.00527193 0.00411516 0.00506104 0.00404906 0.00411516 0.00399719 0.00404906 0.00398091 0.00749742 0.00752202 0.00734572 0.00727971 0.00752202 0.00788985 0.00727971 0.00762668 0.00734572 0.00727971 0.00711538 0.00706939 0.00727971 0.00762668 0.00706939 0.00741393 0.00612073 0.00679831 0.00643835 0.00714748 0.00679831 0.00728663 0.00714748 0.00761706 0.00714748 0.00761706 0.00732228 0.00794531 0.00567614 0.00618269 0.00588687 0.00619997 0.00618269 0.00679635 0.00619997 0.00706392 0.00588687 0.00619997 0.00599486 0.00629346 0.00619997 0.00706392 0.00629346 0.00723645 0.00662171 0.00656249 0.00722362 0.00710412 0.00656249 0.00650327 0.00710412 0.00676308 0.00722362 0.00710412 0.0075363 0.00728719 0.00710412 0.00676308 0.00728719 0.00703512 0.00462281 0.00468694 0.00426356 0.00418641 0.00468694 0.00462005 0.00418641 0.00413677 0.00426356 0.00418641 0.00388536 0.0039021 0.00418641 0.00413677 0.0039021 0.00364507 0.00854906 0.00836754 0.00860638 0.00838596 0.00517755 0.00483349 0.00535289 0.00509288 0.00388536 0.0039021 0.00355321 0.00382361 0.0039021 0.00364507 0.00382361 0.00314167 0.00355321 0.00382361 0.00331265 0.00379537 0.00331265 0.00379537 0.00315083 0.00367657 0.00315083 0.00367657 0.00305407 0.00346141 0.00399719 0.00402479 0.00398091 0.00399503 0.00404262 0.00404194 0.00411431 0.00418366 0.00404194 0.00408838 0.00418366 0.00449655 0.00411431 0.00418366 0.00428842 0.00445695 0.00418366 0.00449655 0.00445695 0.00495419 0.0075363 0.00728719 0.00758558 0.00727458 0.00728719 0.00703512 0.00727458 0.00725537 0.00758558 0.00727458 0.00757795 0.00742844 0.00727458 0.00725537 0.00742844 0.00727892 0.00534737 0.00619567 0.0058613 0.00658017 0.0058613 0.00658017 0.0064401 0.00687306 0.00658017 0.00686397 0.00687306 0.00730602 0.00375916 0.00393189 0.00354886 0.00326376 0.00393189 0.00410461 0.00326376 0.00385131 0.00326376 0.00385131 0.00287749 0.003614 0.00319706 0.0050958 0.00334905 0.00501065 0.00441133 0.0046964 0.00463048 0.00493565 0.00492852 0.00546548 0.00507093 0.00547484 0.0033036 0.00326665 0.00362238 0.00355301 0.00362238 0.00355301 0.00419232 0.00394976 0.00376287 0.00405754 0.00371272 0.00386726 0.00405754 0.00435221 0.00386726 0.00405569 0.00371272 0.00386726 0.00376386 0.00385206 0.00386726 0.00405569 0.00385206 0.00375916 0.00636395 0.0073389 0.006573 0.00766381 0.0073389 0.00773218 0.00766381 0.00816305 0.006573 0.00766381 0.00679635 0.00792684 0.00766381 0.00816305 0.00792684 0.00844393 0.00462142 0.00428842 0.00483986 0.00455283 0.00483986 0.00455283 0.00506724 0.00481829 0.00376386 0.00385206 0.00388389 0.00382147 0.00385206 0.00375916 0.00382147 0.00354886 0.00388389 0.00382147 0.00399737 0.00369926 0.00382147 0.00354886 0.00369926 0.00339038 0.00752277 0.00797025 0.00791443 0.0085238 0.00791443 0.0085238 0.00809963 0.00902406 0.00265791 0.00305407 0.00255825 0.0030617 0.00255825 0.0030617 0.00264188 0.00315296 0.00744287 0.00794032 0.0076238 0.00838986 0.0076238 0.00838986 0.00771743 0.00844813 0.00504523 0.00411855 0.00517724 0.0041587 0.00411855 0.00414151 0.0041587 0.0040883 0.00517724 0.0041587 0.00533852 0.00421622 0.0041587 0.0040883 0.00421622 0.00404262 0.00603064 0.00459916 0.00615825 0.00453454 0.00459916 0.00386126 0.00453454 0.00391208 0.00615825 0.00453454 0.00608816 0.00440679 0.00453454 0.00391208 0.00440679 0.00395748 0.00463048 0.00493565 0.00482018 0.00515845 0.00482018 0.00515845 0.00492161 0.00535614 0.00640742 0.00628903 0.00686397 0.00660536 0.00628903 0.00612073 0.00660536 0.00643835 0.00686397 0.00660536 0.00730602 0.00699137 0.00660536 0.00643835 0.00699137 0.0066613 0.00507093 0.00547484 0.00537354 0.0056513 0.00472562 0.00537354 0.00527968 0.00560546 0.00537354 0.0056513 0.00560546 0.00593123 0.00386126 0.00396525 0.00391208 0.00399839 0.00396525 0.00423407 0.00399839 0.0037961 0.00391208 0.00399839 0.00395748 0.00403294 0.00399839 0.0037961 0.00403294 0.00335579 0.00789632 0.00858857 0.00778969 0.00845291 0.00858857 0.00974068 0.00845291 0.00972492 0.00778969 0.00845291 0.00765606 0.00832458 0.00845291 0.00972492 0.00832458 0.00966822 0.00706732 0.00772537 0.00715791 0.0079883 0.00772537 0.00838343 0.0079883 0.00854906 0.00715791 0.0079883 0.00719149 0.00803428 0.0079883 0.00854906 0.00803428 0.00860638 0.0084322 0.00960816 0.00863453 0.009712 0.00863453 0.009712 0.00858857 0.00974068 0.00408838 0.00437179 0.00449655 0.00512344 0.00437179 0.00456172 0.00512344 0.00498623 0.00449655 0.00512344 0.00495419 0.00574355 0.00512344 0.00498623 0.00574355 0.00546802 0.00569078 0.00608378 0.00517575 0.00565589 0.00608378 0.00619262 0.00565589 0.00574369 0.00565589 0.00574369 0.00522452 0.00528384 0.00593123 0.00657588 0.00621725 0.00679974 0.00657588 0.00697661 0.00679974 0.00701739 0.00621725 0.00679974 0.00650327 0.00695529 0.00679974 0.00701739 0.00695529 0.00723929 0.00722068 0.00694784 0.00640921 0.00638975 0.00694784 0.00678828 0.00638975 0.00641973 0.00640921 0.00638975 0.00548791 0.00583696 0.00638975 0.00641973 0.00583696 0.00597881 0.00754553 0.00797927 0.00776916 0.00834255 0.00776916 0.00834255 0.0081526 0.00846067 0.00597881 0.00672269 0.00566653 0.00663661 0.00672269 0.00725758 0.00663661 0.00727328 0.00566653 0.00663661 0.0055874 0.00662196 0.00663661 0.00727328 0.00662196 0.0070994 0.00679635 0.00792684 0.00706392 0.00808554 0.00706392 0.00808554 0.00723645 0.00817892 0.00523603 0.00402641 0.00514054 0.00403545 0.00402641 0.00376386 0.00403545 0.00388389 0.00514054 0.00403545 0.0050569 0.00404942 0.00403545 0.00388389 0.00404942 0.00399737 0.00645764 0.00528659 0.00644962 0.0053243 0.0050569 0.00404942 0.0050563 0.00407307 0.00404942 0.00399737 0.00407307 0.00404578 0.0050563 0.00407307 0.00506164 0.00409575 0.00407307 0.00404578 0.00409575 0.00408485 0.00678828 0.00708048 0.00641973 0.00685679 0.00685679 0.00714466 0.00672269 0.00725758 0.00730602 0.00699137 0.0075178 0.00733242 0.00699137 0.0066613 0.00733242 0.00682721 0.0075178 0.00733242 0.00772958 0.00740672 0.00733242 0.00682721 0.00740672 0.00697568 0.00428842 0.00445695 0.00455283 0.00482373 0.00445695 0.00495419 0.00482373 0.00543199 0.00455283 0.00482373 0.00481829 0.00518091 0.00482373 0.00543199 0.00518091 0.00584488 0.00481829 0.00518091 0.00507269 0.00547481 0.00518091 0.00584488 0.00547481 0.00615433 0.00507269 0.00547481 0.00527451 0.0057843 0.00547481 0.00615433 0.0057843 0.00636395 0.00584488 0.00658809 0.00615433 0.00696438 0.00658809 0.00655678 0.00696438 0.0071686 0.00615433 0.00696438 0.00636395 0.0073389 0.00696438 0.0071686 0.0073389 0.00773218 0.00364507 0.00460803 0.00314167 0.00442526 0.00460803 0.00469702 0.00442526 0.00471148 0.00815797 0.00819236 0.0076495 0.00771557 0.00513207 0.00547085 0.0058256 0.00593226 0.00547085 0.00563961 0.00593226 0.00583564 0.0058256 0.00593226 0.00640742 0.00628903 0.00593226 0.00583564 0.00628903 0.00612073 0.00603426 0.00672652 0.00621318 0.0068184 0.00621318 0.0068184 0.00628958 0.00690291 0.0066613 0.00732228 0.00682721 0.00744193 0.00732228 0.00794531 0.00744193 0.008372 0.00682721 0.00744193 0.00697568 0.00765974 0.00744193 0.008372 0.00765974 0.00878439 0.00396156 0.00420123 0.00384063 0.0040122 0.00420123 0.00501745 0.0040122 0.00464156 0.00384063 0.0040122 0.00386126 0.00396525 0.0040122 0.00464156 0.00396525 0.00423407 0.00267682 0.00424006 0.00280118 0.00426882 0.00424006 0.00467183 0.00426882 0.00457355 0.00563961 0.00628958 0.00583564 0.00645978 0.00628958 0.00690291 0.00645978 0.00702085 0.00583564 0.00645978 0.00612073 0.00679831 0.00645978 0.00702085 0.00679831 0.00728663 0.00608816 0.00440679 0.00546609 0.00432116 0.00440679 0.00395748 0.00432116 0.00396729 0.00432116 0.00396729 0.00422976 0.00399347 0.00469702 0.0058676 0.00471148 0.00586537 0.0058676 0.00645764 0.00586537 0.00644962 0.00586537 0.00644962 0.00590906 0.00645806 0.00528384 0.00608137 0.00488344 0.00594358 0.00608137 0.00669599 0.00594358 0.00653385 0.00488344 0.00594358 0.00469702 0.0058676 0.00594358 0.00653385 0.0058676 0.00645764 0.00650327 0.00695529 0.00676308 0.00715624 0.00695529 0.00723929 0.00715624 0.00752984 0.00676308 0.00715624 0.00703512 0.00752277 0.00715624 0.00752984 0.00752277 0.00797025 0.00619262 0.00661611 0.00574369 0.00630378 0.00661611 0.00727246 0.00630378 0.00693616 0.00574369 0.00630378 0.00528384 0.00608137 0.00630378 0.00693616 0.00608137 0.00669599 0.00552092 0.00415684 0.00534728 0.00405518 0.00415684 0.00376287 0.00405518 0.00371272 0.00534728 0.00405518 0.00523603 0.00402641 0.00405518 0.00371272 0.00402641 0.00376386 0.00741393 0.00822441 0.00723219 0.00786779 0.00822441 0.00929601 0.00786779 0.00883341 0.00723219 0.00786779 0.00697958 0.00744247 0.00786779 0.00883341 0.00744247 0.00815797 0.0081526 0.00846067 0.00843215 0.00840216 0.00647763 0.00520959 0.00603051 0.00485423 0.00520959 0.00490644 0.00485423 0.00457068 0.00603051 0.00485423 0.00575229 0.00454643 0.00485423 0.00457068 0.00454643 0.00423492 0.00697958 0.00744247 0.00661373 0.0070095 0.00744247 0.00815797 0.0070095 0.0076495 0.00661373 0.0070095 0.00619262 0.00661611 0.0070095 0.0076495 0.00661611 0.00727246 0.00828358 0.00858506 0.00826463 0.0085704 0.00826463 0.0085704 0.00821485 0.00832005 0.00821485 0.00832005 0.00792563 0.00822207 0.00792563 0.00822207 0.00781205 0.00779395 0.00390801 0.00429619 0.00420353 0.00474388 0.00429619 0.00418124 0.00474388 0.00472562 0.00420353 0.00474388 0.00456172 0.00525079 0.00474388 0.00472562 0.00525079 0.00527968 0.00765606 0.00832458 0.00745441 0.00818329 0.0083