# vtk DataFile Version 3.0
#This file was generated by the deal.II library on 2023/2/27 at 0:39:05
ASCII
DATASET UNSTRUCTURED_GRID

FIELD FieldData 2
CYCLE 1 1 int
16
TIME 1 1 double
0.032
POINTS 2920 double
-1.41421 1.22465e-16 1.41421
-2 0 0
-1.62132 0.707107 1.62132
-2.29289 0.707107 2.80798e-16
-1.62132 0.707107 1.62132
-2.29289 0.707107 2.80798e-16
-2.12132 1 2.12132
-3 1 0
-2.12132 -1 2.12132
-3 -1 0
-1.62132 -0.707107 1.62132
-2.29289 -0.707107 2.80798e-16
-1.62132 -0.707107 1.62132
-2.29289 -0.707107 2.80798e-16
-1.41421 1.22465e-16 1.41421
-2 0 0
-2.82843 0 2.82843
-4 0 0
-2.62132 -0.707107 2.62132
-3.70711 -0.707107 4.5399e-16
-2.62132 -0.707107 2.62132
-3.70711 -0.707107 4.5399e-16
-2.12132 -1 2.12132
-3 -1 0
-2.12132 1 2.12132
-3 1 0
-2.62132 0.707107 2.62132
-3.70711 0.707107 4.5399e-16
-2.62132 0.707107 2.62132
-3.70711 0.707107 4.5399e-16
-2.82843 0 2.82843
-4 0 0
-2 0 0
-1.41421 1.22465e-16 -1.41421
-2.29289 0.707107 2.80798e-16
-1.62132 0.707107 -1.62132
-1.41421 1.22465e-16 -1.41421
0 0 -2
-1.62132 0.707107 -1.62132
-4.21198e-16 0.707107 -2.29289
-2.29289 0.707107 2.80798e-16
-1.62132 0.707107 -1.62132
-3 1 0
-2.12132 1 -2.12132
-1.62132 0.707107 -1.62132
-4.21198e-16 0.707107 -2.29289
-2.12132 1 -2.12132
0 1 -3
-3 -1 0
-2.12132 -1 -2.12132
-2.29289 -0.707107 2.80798e-16
-1.62132 -0.707107 -1.62132
-2.12132 -1 -2.12132
0 -1 -3
-1.62132 -0.707107 -1.62132
-4.21198e-16 -0.707107 -2.29289
-2.29289 -0.707107 2.80798e-16
-1.62132 -0.707107 -1.62132
-2 0 0
-1.41421 1.22465e-16 -1.41421
-1.62132 -0.707107 -1.62132
-4.21198e-16 -0.707107 -2.29289
-1.41421 1.22465e-16 -1.41421
0 0 -2
-4 0 0
-2.82843 0 -2.82843
-3.70711 -0.707107 4.5399e-16
-2.62132 -0.707107 -2.62132
-2.82843 0 -2.82843
0 0 -4
-2.62132 -0.707107 -2.62132
-6.80984e-16 -0.707107 -3.70711
-3.70711 -0.707107 4.5399e-16
-2.62132 -0.707107 -2.62132
-3 -1 0
-2.12132 -1 -2.12132
-2.62132 -0.707107 -2.62132
-6.80984e-16 -0.707107 -3.70711
-2.12132 -1 -2.12132
0 -1 -3
-3 1 0
-2.12132 1 -2.12132
-3.70711 0.707107 4.5399e-16
-2.62132 0.707107 -2.62132
-2.12132 1 -2.12132
0 1 -3
-2.62132 0.707107 -2.62132
-6.80984e-16 0.707107 -3.70711
-3.70711 0.707107 4.5399e-16
-2.62132 0.707107 -2.62132
-4 0 0
-2.82843 0 -2.82843
-2.62132 0.707107 -2.62132
-6.80984e-16 0.707107 -3.70711
-2.82843 0 -2.82843
0 0 -4
0 0 -4
2.82843 0 -2.82843
-6.80984e-16 -0.707107 -3.70711
2.62132 -0.707107 -2.62132
-6.80984e-16 0.707107 -3.70711
2.62132 0.707107 -2.62132
0 0 -4
2.82843 0 -2.82843
-1.53073 0 3.69552
-2.82843 0 2.82843
-1.5016 -0.382683 3.62519
-2.7746 -0.382683 2.7746
-1.5016 -0.382683 3.62519
-2.7746 -0.382683 2.7746
-1.41865 -0.707107 3.42492
-2.62132 -0.707107 2.62132
-1.41865 -0.707107 3.42492
-2.62132 -0.707107 2.62132
-1.2945 -0.92388 3.12519
-2.39192 -0.92388 2.39192
-1.2945 -0.92388 3.12519
-2.39192 -0.92388 2.39192
-1.14805 -1 2.77164
-2.12132 -1 2.12132
0 1 3
-1.14805 1 2.77164
2.0713e-16 0.92388 3.38268
-1.2945 0.92388 3.12519
-1.14805 1 2.77164
-2.12132 1 2.12132
-1.2945 0.92388 3.12519
-2.39192 0.92388 2.39192
-1.2945 0.92388 3.12519
-2.39192 0.92388 2.39192
-1.41865 0.707107 3.42492
-2.62132 0.707107 2.62132
-0.877452 0.707107 2.11836
-1.62132 0.707107 1.62132
-1.0016 0.92388 2.41809
-1.85072 0.92388 1.85072
-1.0016 0.92388 2.41809
-1.85072 0.92388 1.85072
-1.14805 1 2.77164
-2.12132 1 2.12132
-1.14805 -1 2.77164
-2.12132 -1 2.12132
-1.0016 -0.92388 2.41809
-1.85072 -0.92388 1.85072
-1.0016 -0.92388 2.41809
-1.85072 -0.92388 1.85072
-0.877452 -0.707107 2.11836
-1.62132 -0.707107 1.62132
3.92388 0.382683 0
3.62519 0.382683 1.5016
4 0 0
3.69552 0 1.53073
0 0 2
-0.765367 1.22465e-16 1.84776
1.27126e-16 0.382683 2.07612
-0.794497 0.382683 1.91809
-0.765367 1.22465e-16 1.84776
-1.41421 1.22465e-16 1.41421
-0.794497 0.382683 1.91809
-1.46804 0.382683 1.46804
-0.794497 0.382683 1.91809
-1.46804 0.382683 1.46804
-0.877452 0.707107 2.11836
-1.62132 0.707107 1.62132
0.765367 1.22465e-16 1.84776
0 0 2
0.794497 0.382683 1.91809
1.27126e-16 0.382683 2.07612
0.794497 0.382683 1.91809
1.27126e-16 0.382683 2.07612
0.877452 0.707107 2.11836
1.40399e-16 0.707107 2.29289
-1.41865 0.707107 3.42492
-2.62132 0.707107 2.62132
-1.5016 0.382683 3.62519
-2.7746 0.382683 2.7746
-1.5016 0.382683 3.62519
-2.7746 0.382683 2.7746
-1.53073 0 3.69552
-2.82843 0 2.82843
4 0 0
3.69552 0 1.53073
3.92388 -0.382683 0
3.62519 -0.382683 1.5016
3.69552 0 1.53073
2.82843 0 2.82843
3.62519 -0.382683 1.5016
2.7746 -0.382683 2.7746
-0.877452 -0.707107 2.11836
-1.62132 -0.707107 1.62132
-0.794497 -0.382683 1.91809
-1.46804 -0.382683 1.46804
-0.794497 -0.382683 1.91809
-1.46804 -0.382683 1.46804
-0.765367 1.22465e-16 1.84776
-1.41421 1.22465e-16 1.41421
2.82843 0 -2.82843
3.69552 0 -1.53073
2.7746 -0.382683 -2.7746
3.62519 -0.382683 -1.5016
3.69552 0 -1.53073
4 0 0
3.62519 -0.382683 -1.5016
3.92388 -0.382683 0
2.7746 -0.382683 -2.7746
3.62519 -0.382683 -1.5016
2.62132 -0.707107 -2.62132
3.42492 -0.707107 -1.41865
3.62519 -0.382683 -1.5016
3.92388 -0.382683 0
3.42492 -0.707107 -1.41865
3.70711 -0.707107 0
2.62132 0.707107 -2.62132
3.42492 0.707107 -1.41865
2.7746 0.382683 -2.7746
3.62519 0.382683 -1.5016
2.7746 0.382683 -2.7746
3.62519 0.382683 -1.5016
2.82843 0 -2.82843
3.69552 0 -1.53073
3.62519 0.382683 -1.5016
3.92388 0.382683 0
3.69552 0 -1.53073
4 0 0
0 0 -2
0.765367 1.22465e-16 -1.84776
-3.81377e-16 0.382683 -2.07612
0.794497 0.382683 -1.91809
0.765367 1.22465e-16 -1.84776
1.41421 1.22465e-16 -1.41421
0.794497 0.382683 -1.91809
1.46804 0.382683 -1.46804
-3.81377e-16 0.382683 -2.07612
0.794497 0.382683 -1.91809
-4.21198e-16 0.707107 -2.29289
0.877452 0.707107 -2.11836
0.794497 0.382683 -1.91809
1.46804 0.382683 -1.46804
0.877452 0.707107 -2.11836
1.62132 0.707107 -1.62132
-4.21198e-16 0.707107 -2.29289
0.877452 0.707107 -2.11836
-4.80793e-16 0.92388 -2.61732
1.0016 0.92388 -2.41809
0.877452 0.707107 -2.11836
1.62132 0.707107 -1.62132
1.0016 0.92388 -2.41809
1.85072 0.92388 -1.85072
-4.80793e-16 0.92388 -2.61732
1.0016 0.92388 -2.41809
0 1 -3
1.14805 1 -2.77164
1.0016 0.92388 -2.41809
1.85072 0.92388 -1.85072
1.14805 1 -2.77164
2.12132 1 -2.12132
0 -1 -3
1.14805 -1 -2.77164
-4.80793e-16 -0.92388 -2.61732
1.0016 -0.92388 -2.41809
1.14805 -1 -2.77164
2.12132 -1 -2.12132
1.0016 -0.92388 -2.41809
1.85072 -0.92388 -1.85072
-4.80793e-16 -0.92388 -2.61732
1.0016 -0.92388 -2.41809
-4.21198e-16 -0.707107 -2.29289
0.877452 -0.707107 -2.11836
1.0016 -0.92388 -2.41809
1.85072 -0.92388 -1.85072
0.877452 -0.707107 -2.11836
1.62132 -0.707107 -1.62132
-4.21198e-16 -0.707107 -2.29289
0.877452 -0.707107 -2.11836
-3.81377e-16 -0.382683 -2.07612
0.794497 -0.382683 -1.91809
0.877452 -0.707107 -2.11836
1.62132 -0.707107 -1.62132
0.794497 -0.382683 -1.91809
1.46804 -0.382683 -1.46804
-3.81377e-16 -0.382683 -2.07612
0.794497 -0.382683 -1.91809
0 0 -2
0.765367 1.22465e-16 -1.84776
0.794497 -0.382683 -1.91809
1.46804 -0.382683 -1.46804
0.765367 1.22465e-16 -1.84776
1.41421 1.22465e-16 -1.41421
-6.80984e-16 -0.707107 -3.70711
1.41865 -0.707107 -3.42492
-6.21389e-16 -0.92388 -3.38268
1.2945 -0.92388 -3.12519
1.41865 -0.707107 -3.42492
2.62132 -0.707107 -2.62132
1.2945 -0.92388 -3.12519
2.39192 -0.92388 -2.39192
-6.21389e-16 -0.92388 -3.38268
1.2945 -0.92388 -3.12519
0 -1 -3
1.14805 -1 -2.77164
1.2945 -0.92388 -3.12519
2.39192 -0.92388 -2.39192
1.14805 -1 -2.77164
2.12132 -1 -2.12132
0 1 -3
1.14805 1 -2.77164
-6.21389e-16 0.92388 -3.38268
1.2945 0.92388 -3.12519
1.14805 1 -2.77164
2.12132 1 -2.12132
1.2945 0.92388 -3.12519
2.39192 0.92388 -2.39192
-6.21389e-16 0.92388 -3.38268
1.2945 0.92388 -3.12519
-6.80984e-16 0.707107 -3.70711
1.41865 0.707107 -3.42492
1.2945 0.92388 -3.12519
2.39192 0.92388 -2.39192
1.41865 0.707107 -3.42492
2.62132 0.707107 -2.62132
1.2945 0.92388 3.12519
0.659929 0.92388 3.31769
1.36066 0.83147 3.28492
0.693657 0.83147 3.48725
1.36066 0.83147 3.28492
0.693657 0.83147 3.48725
1.41865 0.707107 3.42492
0.723221 0.707107 3.63588
-0.780361 0 3.92314
-1.53073 0 3.69552
-0.776613 -0.19509 3.9043
-1.52338 -0.19509 3.67777
2.43753e-16 -0.19509 3.98079
-0.776613 -0.19509 3.9043
2.40268e-16 -0.382683 3.92388
-0.765511 -0.382683 3.84848
-0.776613 -0.19509 3.9043
-1.52338 -0.19509 3.67777
-0.765511 -0.382683 3.84848
-1.5016 -0.382683 3.62519
2.62132 -0.707107 2.62132
2.05956 -0.707107 3.08235
2.51417 -0.83147 2.51417
1.97537 -0.83147 2.95635
2.05956 -0.707107 3.08235
1.41865 -0.707107 3.42492
1.97537 -0.83147 2.95635
1.36066 -0.83147 3.28492
2.51417 -0.83147 2.51417
1.97537 -0.83147 2.95635
2.39192 -0.92388 2.39192
1.87932 -0.92388 2.8126
1.97537 -0.83147 2.95635
1.36066 -0.83147 3.28492
1.87932 -0.92388 2.8126
1.2945 -0.92388 3.12519
1.2945 -0.92388 3.12519
0.659929 -0.92388 3.31769
1.22271 -0.980785 2.95188
0.623331 -0.980785 3.1337
0.659929 -0.92388 3.31769
2.0713e-16 -0.92388 3.38268
0.623331 -0.980785 3.1337
1.95643e-16 -0.980785 3.19509
0.623331 -0.980785 3.1337
1.95643e-16 -0.980785 3.19509
0.585271 -1 2.94236
0 -1 3
0.780361 0 3.92314
0 0 4
0.776613 -0.19509 3.9043
2.43753e-16 -0.19509 3.98079
0.776613 -0.19509 3.9043
2.43753e-16 -0.19509 3.98079
0.765511 -0.382683 3.84848
2.40268e-16 -0.382683 3.92388
2.26995e-16 -0.707107 3.70711
-0.723221 -0.707107 3.63588
2.17716e-16 -0.83147 3.55557
-0.693657 -0.83147 3.48725
-0.723221 -0.707107 3.63588
-1.41865 -0.707107 3.42492
-0.693657 -0.83147 3.48725
-1.36066 -0.83147 3.28492
2.17716e-16 -0.83147 3.55557
-0.693657 -0.83147 3.48725
2.0713e-16 -0.92388 3.38268
-0.659929 -0.92388 3.31769
-0.693657 -0.83147 3.48725
-1.36066 -0.83147 3.28492
-0.659929 -0.92388 3.31769
-1.2945 -0.92388 3.12519
2.12132 1 2.12132
1.66671 1 2.49441
2.25927 0.980785 2.25927
1.7751 0.980785 2.65662
2.25927 0.980785 2.25927
1.7751 0.980785 2.65662
2.39192 0.92388 2.39192
1.87932 0.92388 2.8126
2.82843 0 2.82843
2.22228 0 3.32588
2.81484 -0.19509 2.81484
2.21161 -0.19509 3.3099
2.22228 0 3.32588
1.53073 0 3.69552
2.21161 -0.19509 3.3099
1.52338 -0.19509 3.67777
2.81484 -0.19509 2.81484
2.21161 -0.19509 3.3099
2.7746 -0.382683 2.7746
2.17999 -0.382683 3.26259
2.21161 -0.19509 3.3099
[...]
POINT_DATA 2920
SCALARS U double 1
LOOKUP_TABLE default
-0.00160238 -0.00160561 -0.00159255 -0.00159855 -0.00159255 -0.00159855 -0.00159344 -0.00160354 -0.00159623 -0.00160292 -0.00161245 -0.00159399 -0.00161245 -0.00159399 -0.00160238 -0.00160561 -0.00159232 -0.00159797 -0.00159569 -0.00159989 -0.00159569 -0.00159989 -0.00159623 -0.00160292 -0.00159344 -0.00160354 -0.0015975 -0.00160047 -0.0015975 -0.00160047 -0.00159232 -0.00159797 -0.00160561 -0.00157611 -0.00159855 -0.00161221 -0.00157611 -0.00169502 -0.00161221 -0.00155484 -0.00159855 -0.00161221 -0.00160354 -0.00159204 -0.00161221 -0.00155484 -0.00159204 -0.00162944 -0.00160292 -0.00159163 -0.00159399 -0.00161285 -0.00159163 -0.00163167 -0.00161285 -0.00155647 -0.00159399 -0.00161285 -0.00160561 -0.00157611 -0.00161285 -0.00155647 -0.00157611 -0.00169502 -0.00159797 -0.0016156 -0.00159989 -0.00160453 -0.0016156 -0.00154002 -0.00160453 -0.00158263 -0.00159989 -0.00160453 -0.00160292 -0.00159163 -0.00160453 -0.00158263 -0.00159163 -0.00163167 -0.00160354 -0.00159204 -0.00160047 -0.00160042 -0.00159204 -0.00162944 -0.00160042 -0.00159854 -0.00160047 -0.00160042 -0.00159797 -0.0016156 -0.00160042 -0.00159854 -0.0016156 -0.00154002 -0.00154002 -0.00180695 -0.00158263 -0.00169939 -0.00159854 -0.00163183 -0.00154002 -0.00180695 -0.00164991 -0.00159232 -0.00164778 -0.00159401 -0.00164778 -0.00159401 -0.00162165 -0.00159569 -0.00162165 -0.00159569 -0.00161438 -0.00159596 -0.00161438 -0.00159596 -0.0016126 -0.00159623 -0.00128781 -0.00162646 -0.00121344 -0.00162291 -0.00162646 -0.00159344 -0.00162291 -0.00159547 -0.00162291 -0.00159547 -0.00161628 -0.0015975 -0.00164426 -0.00159255 -0.0016508 -0.001593 -0.0016508 -0.001593 -0.00162646 -0.00159344 -0.0016126 -0.00159623 -0.00160561 -0.00160434 -0.00160561 -0.00160434 -0.00149759 -0.00161245 0.00044445 0.0051262 0.000365419 0.00450893 -0.00162723 -0.00153704 -0.00126931 -0.00161773 -0.00153704 -0.00160238 -0.00161773 -0.00159747 -0.00161773 -0.00159747 -0.00164426 -0.00159255 0.00488545 -0.00162723 0.0052638 -0.00126931 0.0052638 -0.00126931 0.00594692 -0.00133837 -0.00161628 -0.0015975 -0.00162508 -0.00159491 -0.00162508 -0.00159491 -0.00164991 -0.00159232 0.000365419 0.00450893 0.000317174 0.00479203 0.00450893 0.00154158 0.00479203 0.00219946 -0.00149759 -0.00161245 -0.00146967 -0.00160742 -0.00146967 -0.00160742 -0.00153704 -0.00160238 -0.00180695 0.000521629 -0.00175317 0.000475389 0.000521629 0.000365419 0.000475389 0.000317174 -0.00175317 0.000475389 -0.00169939 0.000478099 0.000475389 0.000317174 0.000478099 0.000382637 -0.00163183 2.55104e-05 -0.00171939 0.000415674 -0.00171939 0.000415674 -0.00180695 0.000521629 0.000415674 0.00044445 0.000521629 0.000365419 -0.00169502 -0.00165002 -0.00162493 -0.0016046 -0.00165002 -0.000170894 -0.0016046 -0.0011762 -0.00162493 -0.0016046 -0.00155484 -0.00175583 -0.0016046 -0.0011762 -0.00175583 -0.000326617 -0.00155484 -0.00175583 -0.00159214 -0.0016717 -0.00175583 -0.000326617 -0.0016717 -0.00140116 -0.00159214 -0.0016717 -0.00162944 -0.001559 -0.0016717 -0.00140116 -0.001559 -0.00157948 -0.00163167 -0.00156127 -0.00159407 -0.00166973 -0.00156127 -0.0015891 -0.00166973 -0.00139709 -0.00159407 -0.00166973 -0.00155647 -0.00175165 -0.00166973 -0.00139709 -0.00175165 -0.000315462 -0.00155647 -0.00175165 -0.00162574 -0.00160235 -0.00175165 -0.000315462 -0.00160235 -0.00117021 -0.00162574 -0.00160235 -0.00169502 -0.00165002 -0.00160235 -0.00117021 -0.00165002 -0.000170894 -0.00158263 -0.00164101 -0.00160715 -0.001535 -0.00164101 -0.00169939 -0.001535 -0.00154227 -0.00160715 -0.001535 -0.00163167 -0.00156127 -0.001535 -0.00154227 -0.00156127 -0.0015891 -0.00162944 -0.001559 -0.00161399 -0.00153495 -0.001559 -0.00157948 -0.00153495 -0.0015481 -0.00161399 -0.00153495 -0.00159854 -0.00161519 -0.00153495 -0.0015481 -0.00161519 -0.00163183 0.00684998 0.00354219 0.0059998 0.00371464 0.0059998 0.00371464 0.00523331 0.00371597 -0.00151729 -0.00164991 -0.00158785 -0.00164885 -0.00125964 -0.00158785 -0.00128698 -0.00151543 -0.00158785 -0.00164885 -0.00151543 -0.00164778 0.00383444 0.00433603 0.00479955 0.00522478 0.00433603 0.00522807 0.00522478 0.00609593 0.00479955 0.00522478 0.00593703 0.00629486 0.00522478 0.00609593 0.00629486 0.00689618 0.00689618 0.00342385 0.007535 0.00325267 0.00342385 -0.00120436 0.00325267 -0.00119019 0.00325267 -0.00119019 0.0032329 -0.0011676 0.00403648 -0.00129668 0.00388921 -0.00125964 0.00388921 -0.00125964 0.00384209 -0.00128698 -0.00123027 -0.00147804 -0.00116941 -0.00156477 -0.00147804 -0.00162165 -0.00156477 -0.00161801 -0.00116941 -0.00156477 -0.00120436 -0.00145513 -0.00156477 -0.00161801 -0.00145513 -0.00161438 0.00798661 0.00858401 0.00698636 0.00740506 0.00698636 0.00740506 0.00604025 0.00629362 0.00154158 0.00221316 0.00187052 0.00249104 0.00221316 0.0028072 0.00249104 0.00314589 0.00187052 0.00249104 0.00219946 0.00294462 0.00249104 0.00314589 0.00294462 0.00360743 0.00442921 0.00382512 0.00522807 0.00382452 0.00609593 0.00374703 0.00689618 0.00342385 0.0028373 -0.00128781 0.00319497 -0.00125062 0.00756294 0.00319497 0.00684998 0.00354219 0.00319497 -0.00125062 0.00354219 -0.00121344 0.00604025 0.00629362 0.00524317 0.00517167 0.00629362 0.00684998 0.00517167 0.0059998 0.00524317 0.00517167 0.00445455 0.00422597 0.00517167 0.0059998 0.00422597 0.00523331 0.00523331 0.00371597 0.00451838 0.00374343 0.00527607 0.00736558 0.00445836 0.00732173 0.00685624 0.0021478 0.00747464 0.00250361 0.0021478 -0.00129494 0.00250361 -0.00128538 0.00747464 0.00250361 0.00780342 0.0028373 0.00250361 -0.00128538 0.0028373 -0.00128781 0.00447258 0.00738904 0.00535129 0.0075042 -0.00118458 -0.00145269 -0.00117515 -0.00156991 -0.00145269 -0.00161628 -0.00156991 -0.00162068 -0.00117515 -0.00156991 -0.00126016 -0.00149229 -0.00156991 -0.00162068 -0.00149229 -0.00162508 0.00445455 0.00422597 0.00341048 0.00355826 0.00422597 0.00523331 0.00355826 0.00451838 0.00341048 0.00355826 0.0024135 0.00298605 0.00355826 0.00451838 0.00298605 0.00372042 0.00372042 0.0038932 0.00301493 0.00399176 0.00301493 0.00399176 0.0028072 0.00403648 0.0107519 0.0106102 0.0114668 0.0105343 0.0114668 0.0105343 0.0116316 0.00970455 0.0105343 0.00622146 0.00970455 0.00556024 0.00725579 0.00675134 0.00659223 0.00580195 0.00675134 0.00604025 0.00580195 0.00524317 0.00659223 0.00580195 0.00586014 0.00502185 0.00580195 0.00524317 0.00502185 0.00445455 0.00219946 0.00294462 0.00308181 0.00358127 0.00294462 0.00360743 0.00358127 0.00442921 0.00308181 0.00358127 0.00383444 0.00433603 0.00358127 0.00442921 0.00433603 0.00522807 0.00593703 0.00629486 0.00698831 0.00738354 0.00698831 0.00738354 0.00801422 0.0086253 0.000115048 0.00425859 0.000100344 0.00371925 0.000100344 0.00371925 0.00044445 0.00278532 0.00371925 0.00537346 0.00278532 0.0051262 0.00594692 0.00230427 0.0063489 0.00184932 0.00230427 -0.00133837 0.00184932 -0.00129801 0.0063489 0.00184932 0.00685624 0.0021478 0.00184932 -0.00129801 0.0021478 -0.00129494 0.00586014 0.00502185 0.00537346 0.00427212 0.00502185 0.00445455 0.00427212 0.00341048 0.00537346 0.00427212 0.0051262 0.00356959 0.00427212 0.00341048 0.00356959 0.0024135 0.0024135 0.00298605 0.00181234 0.00248644 0.00298605 0.00372042 0.00248644 0.00301493 0.0114511 0.0098856 0.0112998 0.0105442 0.0098856 0.00594692 0.0105442 0.0063489 0.00929176 0.00968033 0.00798661 0.00858401 0.00801422 0.0086253 0.00937027 0.00985632 0.00679711 0.00270902 0.00622146 0.00208435 0.00622146 0.00208435 0.00556024 0.0018108 -0.00120295 -0.00146749 -0.00130865 -0.00165459 -0.00146749 -0.00160561 -0.00165459 -0.0015516 -0.00130865 -0.00165459 -0.00172571 -0.00168526 -0.00165459 -0.0015516 -0.00168526 -0.00149759 -0.00128698 -0.00151543 -0.00127068 -0.00147596 -0.00151543 -0.00164778 -0.00147596 -0.00163471 -0.00127068 -0.00147596 -0.00123027 -0.00147804 -0.00147596 -0.00163471 -0.00147804 -0.00162165 -0.00120436 -0.00145513 -0.00119019 -0.00142548 -0.00145513 -0.00161438 -0.00142548 -0.00161349 -0.00119019 -0.00142548 -0.0011676 -0.00142447 -0.00142548 -0.00161349 -0.00142447 -0.0016126 -0.00121344 -0.00141817 -0.00118245 -0.00143562 -0.00141817 -0.00162291 -0.00143562 -0.0016196 -0.00118245 -0.00143562 -0.00118458 -0.00145269 -0.00143562 -0.0016196 -0.00145269 -0.00161628 0.00571747 0.00418348 0.00650035 0.00539505 0.00418348 0.00383444 0.00539505 0.00479955 0.00650035 0.00539505 0.00719089 0.00656791 0.00539505 0.00479955 0.00656791 0.00593703 0.00719089 0.00656791 0.00736558 0.00774764 0.00656791 0.00593703 0.00774764 0.00698831 0.00736558 0.00774764 0.00732173 0.00877029 0.00774764 0.00698831 0.00877029 0.00801422 0.00738904 0.00877962 0.0075042 0.00785654 0.00877962 0.00798661 0.00785654 0.00698636 0.0075042 0.00785654 0.00725579 0.00675134 0.00785654 0.00698636 0.00675134 0.00604025 0.0076521 0.0032329 0.00726235 0.00303328 0.0032329 -0.0011676 0.00303328 -0.00118801 0.00726235 0.00303328 0.00679711 0.00270902 0.00303328 -0.00118801 0.00270902 -0.00120295 0.00714212 0.00488545 0.0073785 0.00507462 0.0111399 0.0073785 0.0112352 0.00784347 0.0073785 0.00507462 0.00784347 0.0052638 0.0112352 0.00784347 0.0113831 0.00874127 0.00784347 0.0052638 0.00874127 0.00560536 0.0113831 0.00874127 0.0114511 0.0098856 0.00874127 0.00560536 0.0098856 0.00594692 0.00479203 0.00349574 0.00514557 0.0033544 0.00349574 0.00219946 0.0033544 0.00308181 0.00514557 0.0033544 0.00571747 0.00418348 0.0033544 0.00308181 0.00418348 0.00383444 -0.000786854 0.00303117 -0.000745803 0.00219223 0.00303117 0.00684452 0.00219223 0.00689948 -0.000745803 0.00219223 -0.000635868 0.00203696 0.00219223 0.00689948 0.00203696 0.0070097 0.00684452 0.00970538 0.00689948 0.0101931 0.00970538 0.0114511 0.0101931 0.0112998 0.00689948 0.0101931 0.0070097 0.0100336 0.0101931 0.0112998 0.0100336 0.0105892 -0.000635868 0.00203696 -0.000562764 0.00306635 0.00203696 0.0070097 0.00306635 0.00718244 -0.000562764 0.00306635 -0.00034414 0.00447258 0.00306635 0.00718244 0.00447258 0.00738904 0.0070097 0.0100336 0.00718244 0.00941766 0.0100336 0.0105892 0.00941766 0.00929176 0.00718244 0.00941766 0.00738904 0.00877962 0.00941766 0.00929176 0.00877962 0.00798661 -0.000326135 0.00445836 -0.000561743 0.00305761 0.00445836 0.00732173 0.00305761 0.00717218 -0.000561743 0.00305761 -0.000653277 0.00201258 0.00305761 0.00717218 0.00201258 0.00700062 0.00732173 0.00877029 0.00717218 0.00946568 0.00877029 0.00801422 0.00946568 0.00937027 0.00717218 0.00946568 0.00700062 0.0101248 0.00946568 0.00937027 0.0101248 0.0107519 -0.000653277 0.00201258 -0.000777317 0.0021762 0.00201258 0.00700062 0.0021762 0.00691708 -0.000777317 0.0021762 -0.000824894 0.00303668 0.0021762 0.00691708 0.00303668 0.00690526 0.00700062 0.0101248 0.00691708 0.0103383 0.0101248 0.0107519 0.0103383 0.0114668 0.00691708 0.0103383 0.00690526 0.00985763 0.0103383 0.0114668 0.00985763 0.0116316 0.0116316 0.00970455 0.0114743 0.00844754 0.00970455 0.00556024 0.00844754 0.00518793 0.0114743 0.00844754 0.0112972 0.00755211 0.00844754 0.00518793 0.00755211 0.00491164 0.0051262 0.00356959 0.00481756 0.00307883 0.00356959 0.0024135 0.00307883 0.00181234 0.00481756 0.00307883 0.00450893 0.00302526 0.00307883 0.00181234 0.00302526 0.00154158 0.0112972 0.00755211 0.0111575 0.00720818 0.00755211 0.00491164 0.00720818 0.00486996 0.00720818 0.00486996 0.00714212 0.00488545 -0.00133837 -0.00150895 -0.00129801 -0.00151362 -0.00150895 -0.00164426 -0.00151362 -0.00164753 -0.00129801 -0.00151362 -0.00129494 -0.00150095 -0.00151362 -0.00164753 -0.00150095 -0.0016508 -0.00129494 -0.00150095 -0.00128538 -0.00149258 -0.00150095 -0.0016508 -0.00149258 -0.00163863 -0.00128538 -0.00149258 -0.00128781 -0.00145713 -0.00149258 -0.00163863 -0.00145713 -0.00162646 0.000317174 0.0025546 0.000349905 0.00358339 0.0025546 0.00479203 0.00358339 0.00514557 0.000349905 0.00358339 0.000382637 0.00413702 0.00201357 0.00484889 0.00227253 0.00494926 0.00227253 0.00494926 0.00278033 0.00556683 0.00484889 0.00798295 0.00494926 0.00821505 0.00494926 0.00821505 0.00556683 0.0086988 0.00278033 0.00556683 0.00316784 0.00636641 0.00316784 0.00636641 0.00303117 0.00684452 0.00556683 0.0086988 0.00636641 0.0091915 0.00636641 0.0091915 0.00684452 0.00970538 0.0091915 0.0113831 0.00970538 0.0114511 0.00303668 0.00690526 0.00318241 0.00644711 0.00318241 0.00644711 0.00279821 0.0056228 0.00690526 0.00985763 0.00644711 0.0092908 0.00644711 0.0092908 0.0056228 0.00879951 0.00279821 0.0056228 0.00228259 0.00498095 0.00228259 0.00498095 0.00201357 0.00484889 0.0056228 0.00879951 0.00498095 0.00826197 0.00498095 0.00826197 0.00484889 0.00798295 -0.0011676 -0.00142447 -0.00118801 -0.00142979 -0.00142447 -0.0016126 -0.00142979 -0.0016091 -0.00118801 -0.00142979 -0.00120295 -0.00146749 -0.00142979 -0.0016091 -0.00146749 -0.00160561 -0.00126931 -0.00144352 -0.00130384 -0.00149436 -0.00144352 -0.00161773 -0.00149436 -0.001631 -0.00130384 -0.00149436 -0.00133837 -0.00150895 -0.00149436 -0.001631 -0.00150895 -0.00164426 -0.00126016 -0.00149229 -0.00129404 -0.00148787 -0.00149229 -0.00162508 -0.00148787 -0.00163749 -0.00129404 -0.00148787 -0.00129668 -0.00151729 -0.00148787 -0.00163749 -0.00151729 -0.00164991 0.00556024 0.0018108 0.00518793 0.00164006 0.0018108 -0.00172571 0.00164006 -0.00184004 0.00518793 0.00164006 0.00491164 0.00148932 0.00164006 -0.00184004 0.00148932 -0.00187224 0.00491164 0.00148932 0.00486996 0.00153645 0.00148932 -0.00187224 0.00153645 -0.00174782 0.00486996 0.00153645 0.00488545 0.00162911 0.00153645 -0.00174782 0.00162911 -0.00162723 -0.00172571 -0.00168526 -0.00184004 -0.00170585 -0.00168526 -0.00149759 -0.00170585 -0.00148363 -0.00184004 -0.00170585 -0.00187224 -0.00172664 -0.00170585 -0.00148363 -0.00172664 -0.00146967 -0.00187224 -0.00172664 -0.00174782 -0.00168265 -0.00172664 -0.00146967 -0.00168265 -0.00150336 -0.00174782 -0.00168265 -0.00162723 -0.00158214 -0.00168265 -0.00150336 -0.00158214 -0.00153704 -0.000326617 0.00150194 -0.000863886 0.000680412 0.00150194 0.00269796 0.000680412 0.00209079 -0.000863886 0.000680412 -0.00140116 0.000693184 0.000680412 0.00209079 0.000693184 0.00155599 -0.00140116 0.000693184 -0.00149032 -3.94415e-05 0.000693184 0.00155599 -3.94415e-05 0.00158139 -0.00149032 -3.94415e-05 -0.00157948 -6.33581e-05 -3.94415e-05 0.00158139 -6.33581e-05 0.00173444 -0.0015891 -6.03946e-05 -0.0014931 -3.90684e-05 -6.03946e-05 0.00174332 -3.90684e-05 0.00158235 -0.0014931 -3.90684e-05 -0.00139709 0.000691477 -3.90684e-05 0.00158235 0.000691477 0.00155 -0.00139709 0.000691477 -0.000856277 0.000678266 0.000691477 0.00155 0.000678266 0.00207881 -0.000856277 0.000678266 -0.000315462 0.00149933 0.000678266 0.00207881 0.00149933 0.00268155 -0.000170894 0.0020728 -0.000673548 0.0021446 0.0020728 0.00286507 0.0021446 0.0028665 -0.000673548 0.0021446 -0.0011762 0.00197824 0.0021446 0.0028665 0.00197824 0.00290962 0.00286507 0.000281385 0.0028665 0.000268594 0.000281385 -0.000921216 0.000268594 -0.000978465 0.0028665 0.000268594 0.00290962 0.000248794 0.000268594 -0.000978465 0.000248794 -0.00102249 -0.0011762 0.00197824 -0.00075141 0.00171909 0.00197824 0.00290962 0.00171909 0.00287488 -0.00075141 0.00171909 -0.000326617 0.00150194 0.00171909 0.00287488 0.00150194 0.00269796 0.00290962 0.000248794 0.00287488 0.000215574 0.000248794 -0.00102249 0.000215574 -0.00089964 0.00287488 0.000215574 0.00269796 0.000401843 0.000215574 -0.00089964 0.000401843 -0.000786854 -0.000315462 0.00149933 -0.000742836 0.00171672 0.00149933 0.00268155 0.00171672 0.00286105 -0.000742836 0.00171672 -0.00117021 0.0019761 0.00171672 0.00286105 0.0019761 0.00289966 0.00268155 0.00037391 0.00286105 0.000192242 0.00037391 -0.000824894 0.000192242 -0.00093028 0.00286105 0.000192242 0.00289966 0.000232093 0.000192242 -0.00093028 0.000232093 -0.00104396 -0.00117021 0.0019761 -0.000670552 0.00214349 0.0019761 0.00289966 0.00214349 0.00286141 -0.000670552 0.00214349 -0.000170894 0.0020728 0.00214349 0.00286141 0.0020728 0.00286507 0.00289966 0.000232093 0.00286141 0.00026007 0.000232093 -0.00104396 0.00026007 -0.000989323 0.00286141 0.00026007 0.00286507 0.000281385 0.00026007 -0.000989323 0.000281385 -0.000921216 -0.00169939 -0.000610644 -0.00162083 -0.00125607 -0.000610644 0.000478099 -0.00125607 0.00024029 -0.00162083 -0.00125607 -0.00154227 -0.00121995 -0.00125607 0.00024029 -0.00121995 0.00023315 0.000478099 0.000430368 0.00024029 0.00140176 0.000430368 0.000382637 0.00140176 -8.32913e-05 0.00024029 0.00140176 0.00023315 0.00110472 0.00140176 -8.32913e-05 0.00110472 -0.000137981 -0.00154227 -0.00121995 -0.00156569 -0.000247553 -0.00121995 0.00023315 -0.000247553 0.00125776 -0.00156569 -0.000247553 -0.0015891 -6.03946e-05 -0.000247553 0.00125776 -6.03946e-05 0.00174332 0.00023315 0.00110472 0.00125776 0.00118361 0.00110472 -0.000137981 0.00118361 -0.000223086 0.00125776 0.00118361 0.00174332 0.0013928 0.00118361 -0.000223086 0.0013928 -0.000326135 -0.00157948 -6.33581e-05 -0.00156379 -0.000246515 -6.33581e-05 0.00173444 -0.000246515 0.00125013 -0.00156379 -0.000246515 -0.0015481 -0.00122585 -0.000246515 0.00125013 -0.00122585 0.000199157 0.00173444 0.00138144 0.00125013 0.00115414 0.00138144 -0.00034414 0.00115414 -0.000249793 0.00125013 0.00115414 0.000199157 0.00111749 0.00115414 -0.000249793 0.00111749 -0.000186446 -0.0015481 -0.00122585 -0.00158996 -0.00122722 -0.00122585 0.000199157 -0.00122722 0.000317378 -0.00158996 -0.00122722 -0.00163183 -0.00080316 -0.00122722 0.000317378 -0.00080316 2.55104e-05 0.000199157 0.00111749 0.000317378 0.00118071 0.00111749 -0.000186446 0.00118071 -7.76629e-05 0.000317378 0.00118071 2.55104e-05 0.00131232 0.00118071 -7.76629e-05 0.00131232 0.000115048 2.55104e-05 0.00131232 0.000220592 0.00148468 0.00131232 0.000115048 0.00148468 0.000100344 0.000220592 0.00148468 0.000415674 0.000430062 0.00148468 0.000100344 0.000430062 0.00044445 0.00354219 0.00116438 0.00362841 0.00120859 0.00116438 -0.00121344 0.00120859 -0.00119794 0.00362841 0.00120859 0.00371464 0.00123339 0.00120859 -0.00119794 0.00123339 -0.00118245 0.00371464 0.00123339 0.0037153 0.00125008 0.00123339 -0.00118245 0.00125008 -0.00118351 0.0037153 0.00125008 0.00371597 0.00125375 0.00125008 -0.00118351 0.00125375 -0.00118458 -0.00129668 -0.00140699 -0.00127816 -0.00144818 -0.00140699 -0.00151729 -0.00144818 -0.00155257 -0.00127816 -0.00144818 -0.00125964 -0.00142374 -0.00144818 -0.00155257 -0.00142374 -0.00158785 0.007535 0.00539384 0.00762629 0.00550384 0.00539384 0.00325267 0.00550384 0.00324279 0.00762629 0.00550384 0.0076521 0.0054425 0.00550384 0.00324279 0.0054425 0.0032329 0.0028072 0.00342184 0.00297655 0.00349423 0.00342184 0.00403648 0.00349423 0.00396284 0.00297655 0.00349423 0.00314589 0.00357444 0.00349423 0.00396284 0.00357444 0.00388921 0.00314589 0.00357444 0.00337666 0.00365155 0.00357444 0.00388921 0.00365155 0.00386565 0.00337666 0.00365155 0.00360743 0.00378653 0.00365155 0.00386565 0.00378653 0.00384209 0.00858401 0.00822725 0.00799453 0.00792583 0.00822725 0.00780342 0.00792583 0.00771026 0.00799453 0.00792583 0.00740506 0.00752198 0.00792583 0.00771026 0.00752198 0.00756294 0.00740506 0.00752198 0.00684934 0.00708215 0.00752198 0.00756294 0.00708215 0.00720646 0.00684934 0.00708215 0.00629362 0.0065718 0.00708215 0.00720646 0.0065718 0.00684998 0.00360743 0.00378653 0.00401832 0.00395518 0.00378653 0.00384209 0.00395518 0.003818 0.00401832 0.00395518 0.00442921 0.00412717 0.00395518 0.003818 0.00412717 0.00382512 0.00384209 0.00127756 0.003818 0.00128086 0.00127756 -0.00128698 0.00128086 -0.00127883 0.003818 0.00128086 0.00382512 0.00127377 0.00128086 -0.00127883 0.00127377 -0.00127068 0.00382512 0.00127377 0.00382482 0.00127707 0.00127377 -0.00127068 0.00127707 -0.00125048 0.00382482 0.00127707 0.00382452 0.00128358 0.00127707 -0.00125048 0.00128358 -0.00123027 0.000382637 0.00225983 0.000149673 0.0025776 0.00225983 0.00413702 0.0025776 0.0045456 0.000149673 0.0025776 -8.32913e-05 0.00280671 0.0025776 0.0045456 0.00280671 0.00498227 0.00413702 0.00495914 0.0045456 0.00537772 0.00495914 0.00571747 0.00537772 0.00610891 0.0045456 0.00537772 0.0049822