# vtk DataFile Version 3.0
#This file was generated by the deal.II library on 2023/2/27 at 0:39:33
ASCII
DATASET UNSTRUCTURED_GRID

FIELD FieldData 2
CYCLE 1 1 int
90
TIME 1 1 double
0.18
POINTS 30184 double
-1.41865 0.707107 3.42492
-2.62132 0.707107 2.62132
-1.5016 0.382683 3.62519
-2.7746 0.382683 2.7746
2.70926 -0.55557 2.70926
2.12865 -0.55557 3.18575
2.62132 -0.707107 2.62132
2.05956 -0.707107 3.08235
2.12865 -0.55557 3.18575
1.46624 -0.55557 3.53982
2.05956 -0.707107 3.08235
1.41865 -0.707107 3.42492
-1.53073 0 3.69552
-2.22228 0 3.32588
-1.52338 -0.19509 3.67777
-2.21161 -0.19509 3.3099
-2.22228 0 3.32588
-2.82843 0 2.82843
-2.21161 -0.19509 3.3099
-2.81484 -0.19509 2.81484
-1.52338 -0.19509 3.67777
-2.21161 -0.19509 3.3099
-1.5016 -0.382683 3.62519
-2.17999 -0.382683 3.26259
-2.21161 -0.19509 3.3099
-2.81484 -0.19509 2.81484
-2.17999 -0.382683 3.26259
-2.7746 -0.382683 2.7746
2.39192 -0.92388 2.39192
1.87932 -0.92388 2.8126
2.25927 -0.980785 2.25927
1.7751 -0.980785 2.65662
2.25927 -0.980785 2.25927
1.7751 -0.980785 2.65662
2.12132 -1 2.12132
1.66671 -1 2.49441
-0.747483 -0.55557 3.75785
-1.46624 -0.55557 3.53982
-0.723221 -0.707107 3.63588
-1.41865 -0.707107 3.42492
2.12132 1 2.12132
1.66671 1 2.49441
2.25927 0.980785 2.25927
1.7751 0.980785 2.65662
2.25927 0.980785 2.25927
1.7751 0.980785 2.65662
2.39192 0.92388 2.39192
1.87932 0.92388 2.8126
1.0016 0.92388 2.41809
0.510613 0.92388 2.56703
1.07339 0.980785 2.5914
0.547211 0.980785 2.75101
1.07339 0.980785 2.5914
0.547211 0.980785 2.75101
1.14805 1 2.77164
0.585271 1 2.94236
1.14805 -1 2.77164
0.585271 -1 2.94236
1.07339 -0.980785 2.5914
0.547211 -0.980785 2.75101
1.07339 -0.980785 2.5914
0.547211 -0.980785 2.75101
1.0016 -0.92388 2.41809
0.510613 -0.92388 2.56703
-0.585271 1 2.94236
-1.14805 1 2.77164
-0.623331 0.980785 3.1337
-1.22271 0.980785 2.95188
1.0016 -0.92388 2.41809
0.510613 -0.92388 2.56703
0.935443 -0.83147 2.25836
0.476885 -0.83147 2.39746
2.81484 0.19509 2.81484
2.21161 0.19509 3.3099
2.82843 0 2.82843
2.22228 0 3.32588
1.27386 0.707107 1.90647
0.877452 0.707107 2.11836
1.35805 0.83147 2.03247
0.935443 0.83147 2.25836
1.85072 0.92388 1.85072
1.4541 0.92388 2.17622
1.98337 0.980785 1.98337
1.55832 0.980785 2.3322
1.98337 0.980785 1.98337
1.55832 0.980785 2.3322
2.12132 1 2.12132
1.66671 1 2.49441
2.12132 -1 2.12132
1.66671 -1 2.49441
1.98337 -0.980785 1.98337
1.55832 -0.980785 2.3322
-1.07339 0.980785 2.5914
-1.55832 0.980785 2.3322
-1.14805 1 2.77164
-1.66671 1 2.49441
-1.55832 0.980785 2.3322
-1.98337 0.980785 1.98337
-1.66671 1 2.49441
-2.12132 1 2.12132
-1.14805 -1 2.77164
-1.66671 -1 2.49441
-1.07339 -0.980785 2.5914
-1.55832 -0.980785 2.3322
-1.66671 -1 2.49441
-2.12132 -1 2.12132
-1.55832 -0.980785 2.3322
-1.98337 -0.980785 1.98337
0.423059 0.55557 -2.12686
0.829861 0.55557 -2.00346
0.447321 0.707107 -2.24884
0.877452 0.707107 -2.11836
-0.935443 -0.83147 2.25836
-1.35805 -0.83147 2.03247
-0.877452 -0.707107 2.11836
-1.27386 -0.707107 1.90647
1.15343 0.382683 1.72623
0.794497 0.382683 1.91809
1.20477 0.55557 1.80307
0.829861 0.55557 2.00346
1.20477 0.55557 1.80307
0.829861 0.55557 2.00346
1.27386 0.707107 1.90647
0.877452 0.707107 2.11836
0.447321 0.707107 -2.24884
0.877452 0.707107 -2.11836
0.476885 0.83147 -2.39746
0.935443 0.83147 -2.25836
0.476885 0.83147 -2.39746
0.935443 0.83147 -2.25836
0.510613 0.92388 -2.56703
1.0016 0.92388 -2.41809
1.27386 -0.707107 1.90647
0.877452 -0.707107 2.11836
1.20477 -0.55557 1.80307
0.829861 -0.55557 2.00346
1.20477 -0.55557 1.80307
0.829861 -0.55557 2.00346
1.15343 -0.382683 1.72623
0.794497 -0.382683 1.91809
1.84776 1.22465e-16 0.765367
1.66294 1.22465e-16 1.11114
1.86551 0.19509 0.77272
1.67892 0.19509 1.12182
1.91809 0.382683 0.794497
1.72623 0.382683 1.15343
2.00346 0.55557 0.829861
1.80307 0.55557 1.20477
2.00346 0.55557 0.829861
1.80307 0.55557 1.20477
2.11836 0.707107 0.877452
1.90647 0.707107 1.27386
2.11836 -0.707107 0.877452
1.90647 -0.707107 1.27386
2.00346 -0.55557 0.829861
1.80307 -0.55557 1.20477
2.00346 -0.55557 0.829861
1.80307 -0.55557 1.20477
1.91809 -0.382683 0.794497
1.72623 -0.382683 1.15343
3.32588 0 -2.22228
3.69552 0 -1.53073
3.3099 -0.19509 -2.21161
3.67777 -0.19509 -1.52338
3.3099 -0.19509 -2.21161
3.67777 -0.19509 -1.52338
3.26259 -0.382683 -2.17999
3.62519 -0.382683 -1.5016
1.86551 -0.19509 0.77272
1.67892 -0.19509 1.12182
1.84776 1.22465e-16 0.765367
1.66294 1.22465e-16 1.11114
2.11836 0.707107 -0.877452
2.24884 0.707107 -0.447321
2.25836 0.83147 -0.935443
2.39746 0.83147 -0.476885
2.25836 0.83147 -0.935443
2.39746 0.83147 -0.476885
2.41809 0.92388 -1.0016
2.56703 0.92388 -0.510613
2.41809 -0.92388 -1.0016
2.56703 -0.92388 -0.510613
2.25836 -0.83147 -0.935443
2.39746 -0.83147 -0.476885
2.25836 -0.83147 -0.935443
2.39746 -0.83147 -0.476885
2.11836 -0.707107 -0.877452
2.24884 -0.707107 -0.447321
0.510613 -0.92388 -2.56703
1.0016 -0.92388 -2.41809
0.476885 -0.83147 -2.39746
0.935443 -0.83147 -2.25836
0.476885 -0.83147 -2.39746
0.935443 -0.83147 -2.25836
0.447321 -0.707107 -2.24884
0.877452 -0.707107 -2.11836
0.447321 -0.707107 -2.24884
0.877452 -0.707107 -2.11836
0.423059 -0.55557 -2.12686
0.829861 -0.55557 -2.00346
2.05956 -0.707107 -3.08235
2.62132 -0.707107 -2.62132
1.97537 -0.83147 -2.95635
2.51417 -0.83147 -2.51417
1.97537 -0.83147 -2.95635
2.51417 -0.83147 -2.51417
1.87932 -0.92388 -2.8126
2.39192 -0.92388 -2.39192
1.80307 0.55557 -1.20477
2.00346 0.55557 -0.829861
1.90647 0.707107 -1.27386
2.11836 0.707107 -0.877452
1.90647 -0.707107 -1.27386
2.11836 -0.707107 -0.877452
1.80307 -0.55557 -1.20477
2.00346 -0.55557 -0.829861
3.08235 -0.707107 -2.05956
3.42492 -0.707107 -1.41865
2.95635 -0.83147 -1.97537
3.28492 -0.83147 -1.36066
2.51417 -0.83147 -2.51417
2.95635 -0.83147 -1.97537
2.39192 -0.92388 -2.39192
2.8126 -0.92388 -1.87932
2.39192 -0.92388 -2.39192
2.8126 -0.92388 -1.87932
2.25927 -0.980785 -2.25927
2.65662 -0.980785 -1.7751
2.25927 -0.980785 -2.25927
2.65662 -0.980785 -1.7751
2.12132 -1 -2.12132
2.49441 -1 -1.66671
2.12132 1 -2.12132
2.49441 1 -1.66671
2.25927 0.980785 -2.25927
2.65662 0.980785 -1.7751
2.25927 0.980785 -2.25927
2.65662 0.980785 -1.7751
2.39192 0.92388 -2.39192
2.8126 0.92388 -1.87932
2.39192 0.92388 -2.39192
2.8126 0.92388 -1.87932
2.51417 0.83147 -2.51417
2.95635 0.83147 -1.97537
2.95635 0.83147 -1.97537
3.28492 0.83147 -1.36066
3.08235 0.707107 -2.05956
3.42492 0.707107 -1.41865
1.87932 -0.92388 -2.8126
2.39192 -0.92388 -2.39192
1.7751 -0.980785 -2.65662
2.25927 -0.980785 -2.25927
1.7751 -0.980785 -2.65662
2.25927 -0.980785 -2.25927
1.66671 -1 -2.49441
2.12132 -1 -2.12132
1.7751 0.980785 -2.65662
2.25927 0.980785 -2.25927
1.87932 0.92388 -2.8126
2.39192 0.92388 -2.39192
1.87932 0.92388 -2.8126
2.39192 0.92388 -2.39192
1.97537 0.83147 -2.95635
2.51417 0.83147 -2.51417
1.97537 0.83147 -2.95635
2.51417 0.83147 -2.51417
2.05956 0.707107 -3.08235
2.62132 0.707107 -2.62132
-0.723221 -0.707107 3.63588
-1.41865 -0.707107 3.42492
-0.693657 -0.83147 3.48725
-1.36066 -0.83147 3.28492
-1.41865 -0.707107 3.42492
-2.05956 -0.707107 3.08235
-1.36066 -0.83147 3.28492
-1.97537 -0.83147 2.95635
-2.05956 -0.707107 3.08235
-2.62132 -0.707107 2.62132
-1.97537 -0.83147 2.95635
-2.51417 -0.83147 2.51417
-1.97537 -0.83147 2.95635
-2.51417 -0.83147 2.51417
-1.87932 -0.92388 2.8126
-2.39192 -0.92388 2.39192
-0.659929 -0.92388 3.31769
-1.2945 -0.92388 3.12519
-0.623331 -0.980785 3.1337
-1.22271 -0.980785 2.95188
-0.623331 -0.980785 3.1337
-1.22271 -0.980785 2.95188
-0.585271 -1 2.94236
-1.14805 -1 2.77164
-0.390181 1.22465e-16 1.96157
-0.765367 1.22465e-16 1.84776
-0.393929 0.19509 1.98042
-0.77272 0.19509 1.86551
-1.2945 -0.92388 3.12519
-1.87932 -0.92388 2.8126
-1.22271 -0.980785 2.95188
-1.7751 -0.980785 2.65662
-1.87932 -0.92388 2.8126
-2.39192 -0.92388 2.39192
-1.7751 -0.980785 2.65662
-2.25927 -0.980785 2.25927
-1.22271 -0.980785 2.95188
-1.7751 -0.980785 2.65662
-1.14805 -1 2.77164
-1.66671 -1 2.49441
-1.7751 -0.980785 2.65662
-2.25927 -0.980785 2.25927
-1.66671 -1 2.49441
-2.12132 -1 2.12132
-1.14805 1 2.77164
-1.66671 1 2.49441
-1.22271 0.980785 2.95188
-1.7751 0.980785 2.65662
-1.66671 1 2.49441
-2.12132 1 2.12132
-1.7751 0.980785 2.65662
-2.25927 0.980785 2.25927
-1.7751 0.980785 2.65662
-2.25927 0.980785 2.25927
-1.87932 0.92388 2.8126
-2.39192 0.92388 2.39192
-0.659929 0.92388 3.31769
-1.2945 0.92388 3.12519
-0.693657 0.83147 3.48725
-1.36066 0.83147 3.28492
-0.693657 0.83147 3.48725
-1.36066 0.83147 3.28492
-0.723221 0.707107 3.63588
-1.41865 0.707107 3.42492
3.67777 0.19509 1.52338
3.3099 0.19509 2.21161
3.69552 0 1.53073
3.32588 0 2.22228
3.3099 0.19509 2.21161
2.81484 0.19509 2.81484
3.32588 0 2.22228
2.82843 0 2.82843
-1.2945 0.92388 3.12519
-1.87932 0.92388 2.8126
-1.36066 0.83147 3.28492
-1.97537 0.83147 2.95635
-1.87932 0.92388 2.8126
-2.39192 0.92388 2.39192
-1.97537 0.83147 2.95635
-2.51417 0.83147 2.51417
-1.36066 0.83147 3.28492
-1.97537 0.83147 2.95635
-1.41865 0.707107 3.42492
-2.05956 0.707107 3.08235
-1.97537 0.83147 2.95635
-2.51417 0.83147 2.51417
-2.05956 0.707107 3.08235
-2.62132 0.707107 2.62132
0.877452 0.707107 2.11836
0.447321 0.707107 2.24884
0.935443 0.83147 2.25836
0.476885 0.83147 2.39746
-0.723221 0.707107 3.63588
-1.41865 0.707107 3.42492
-0.747483 0.55557 3.75785
-1.46624 0.55557 3.53982
-0.747483 0.55557 3.75785
-1.46624 0.55557 3.53982
-0.765511 0.382683 3.84848
-1.5016 0.382683 3.62519
2.05956 0.707107 3.08235
1.41865 0.707107 3.42492
2.12865 0.55557 3.18575
1.46624 0.55557 3.53982
3.62519 -0.382683 1.5016
3.26259 -0.382683 2.17999
3.53982 -0.55557 1.46624
3.18575 -0.55557 2.12865
3.26259 -0.382683 2.17999
2.7746 -0.382683 2.7746
3.18575 -0.55557 2.12865
2.70926 -0.55557 2.70926
3.53982 -0.55557 1.46624
3.18575 -0.55557 2.12865
3.42492 -0.707107 1.41865
3.08235 -0.707107 2.05956
-0.829861 0.55557 -2.00346
-0.423059 0.55557 -2.12686
-0.877452 0.707107 -2.11836
-0.447321 0.707107 -2.24884
-0.877452 0.707107 -2.11836
-0.447321 0.707107 -2.24884
-0.935443 0.83147 -2.25836
-0.476885 0.83147 -2.39746
[...]
POINT_DATA 30184
SCALARS U double 1
LOOKUP_TABLE default
-0.00247511 -0.00267906 -0.00350722 -0.0039822 0.00163904 0.0022994 0.00289813 0.00346142 0.0022994 0.00274499 0.00346142 0.00361411 -0.00390741 -0.00434036 -0.00381821 -0.00419967 -0.00434036 -0.0044346 -0.00419967 -0.00431147 -0.00381821 -0.00419967 -0.00349799 -0.003818 -0.00419967 -0.00431147 -0.003818 -0.00395994 0.00609625 0.00624741 0.00783459 0.00771098 0.00783459 0.00771098 0.0095096 0.00901571 -0.00384547 -0.00299982 -0.00366751 -0.00246559 0.00952188 0.00918816 0.00792438 0.0078731 0.00792438 0.0078731 0.0062397 0.0063939 0.00628257 -0.000331255 0.00644075 -0.000190912 0.00644075 -0.000190912 0.00634661 -3.86792e-05 0.00619994 -4.46305e-05 0.00620294 -0.000246488 0.00620294 -0.000246488 0.00607951 -0.00047175 -0.0036245 -0.000935843 -0.00353047 -0.00111324 0.00607951 -0.00047175 0.0057143 -0.000686405 0.000233505 0.000864397 -3.80044e-06 0.000645232 0.0108472 0.00543055 0.0110872 0.00598819 0.0120267 0.0108947 0.0109039 0.0102196 0.0109039 0.0102196 0.00952188 0.00918816 0.0095096 0.00901571 0.0110265 0.0100674 -0.000884114 0.000995522 -0.000935843 0.000445945 0.000995522 0.00167235 0.000445945 0.000872251 -0.000973349 0.000397226 -0.000895267 0.000975975 0.000397226 0.000889565 0.000975975 0.00168661 -0.0011522 0.00519941 -0.000851069 0.00580847 -0.00115082 0.00147401 -0.00141502 0.00142665 0.00989756 0.00449718 0.0103973 0.00494983 0.0103973 0.00494983 0.0108472 0.00543055 -0.000851069 0.00580847 -0.0004229 0.00645524 -0.0004229 0.00645524 4.21785e-05 0.00705873 0.0107564 0.00524249 0.0102994 0.00472673 0.0102994 0.00472673 0.00980983 0.00430028 0.00505057 0.0100894 0.00509497 0.0101803 0.00526715 0.0103899 0.00551657 0.0106194 0.00551657 0.0106194 0.00582005 0.0108623 0.0061187 0.011224 0.00569023 0.0108929 0.00569023 0.0108929 0.00536646 0.0105225 0.000762076 0.00141185 0.000921779 0.00153514 0.000921779 0.00153514 0.00141372 0.00195796 0.00514383 0.0102359 0.00505057 0.0100894 0.00557649 -0.000475187 0.00614957 -0.000235333 0.00614957 -0.000235333 0.00664164 -4.06008e-05 0.00662298 -2.33332e-05 0.00613463 -0.000223517 0.00613463 -0.000223517 0.00556632 -0.000470239 4.32277e-05 0.00705613 -0.000422285 0.00645467 -0.000422285 0.00645467 -0.000850431 0.00580934 -0.000850431 0.00580934 -0.00115156 0.00520068 0.00373367 0.00314169 0.00512888 0.00469165 0.00512888 0.00469165 0.00665802 0.00646403 0.0114168 0.0050719 0.0120411 0.00557649 0.0120352 0.00556632 0.0114123 0.00506619 0.00352612 0.00365295 0.00506559 0.00474017 0.00469165 0.00506559 0.00646403 0.00669192 0.00646403 0.00669192 0.00835851 0.00837632 0.00835851 0.00837632 0.0102694 0.00993704 0.0102343 0.00991766 0.00834472 0.0083539 0.00834472 0.0083539 0.00646032 0.00666749 0.00646032 0.00666749 0.00469557 0.00503982 0.00503982 0.00474284 0.00350345 0.00364143 0.00665802 0.00646403 0.00824945 0.00835851 0.00824945 0.00835851 0.00975388 0.0102694 0.00828429 0.00834472 0.00667969 0.00646032 0.00667969 0.00646032 0.00514273 0.00469557 0.00514273 0.00469557 0.00374457 0.00314961 -0.00366751 -0.00246559 -0.00349954 -0.00193635 -0.00246559 -0.0025987 -0.00193635 -0.00185143 -0.0025987 -0.00267869 -0.00185143 -0.00188413 -0.00185143 -0.00188413 -0.00107854 -0.000977266 -0.00342676 -0.0014861 -0.00345438 -0.00117797 -0.00345438 -0.00117797 -0.00356114 -0.000973349 -0.00456108 -0.00207251 -0.00455774 -0.00199702 -0.0014861 -0.00107854 -0.00117797 -0.000305241 -0.00107854 -0.000977266 -0.000305241 -5.39435e-05 -0.00117797 -0.000305241 -0.000973349 0.000397226 -0.000305241 -5.39435e-05 0.000397226 0.000889565 -0.000935843 0.000445945 -0.00111324 -0.000239987 0.000445945 0.000872251 -0.000239987 -7.25739e-05 -0.000239987 -7.25739e-05 -0.00102079 -0.000995057 -0.00350832 -0.00146165 -0.00360408 -0.0019368 -0.00360408 -0.0019368 -0.00373359 -0.00247511 0.00204937 0.00101727 0.00185864 0.0007968 0.00101727 0.000233505 0.0007968 -3.80044e-06 -0.00146165 -0.00102079 -0.0019368 -0.00182008 -0.00102079 -0.000995057 -0.00182008 -0.0018941 -0.0019368 -0.00182008 -0.00247511 -0.00257708 -0.00182008 -0.0018941 -0.00257708 -0.00267906 0.00543055 -0.000652385 0.00598819 -0.000531998 -0.00373359 -0.00247511 -0.00390057 -0.00299116 -0.00390057 -0.00299116 -0.00403915 -0.00350722 0.00358123 0.00357803 0.00240787 0.00270415 0.00245821 0.00149474 0.00314102 0.00238882 0.00149474 0.000720097 0.00238882 0.00163904 0.00314102 0.00238882 0.00398944 0.00360448 0.00476167 -0.0012834 0.00553938 -0.000963558 0.00553938 -0.000963558 0.00630607 -0.000731267 0.00630607 -0.000731267 0.00703562 -0.000632613 0.00703541 -0.000632408 0.00630578 -0.000731227 0.00630578 -0.000731227 0.00553914 -0.000963707 0.00553914 -0.000963707 0.0047615 -0.00128353 0.00147216 0.000804373 0.00166826 0.00099473 0.00099473 9.48564e-05 0.00157717 0.000785978 0.00157717 0.000785978 0.00252404 0.00182299 0.00252404 0.00182299 0.00373367 0.00314169 0.00374457 0.00314961 0.00253447 0.00183457 0.00253447 0.00183457 0.00158923 0.000798453 0.00158923 0.000798453 0.00100306 0.000109624 0.00166848 0.00100306 0.00147216 0.000804373 0.00141372 0.00195796 0.00228483 0.00268784 0.00182299 0.00228483 0.00314169 0.00352612 0.00228483 0.00268784 0.00352612 0.00365295 0.0015523 3.26693e-05 0.00199741 -0.000307424 0.00200101 0.000171646 0.00188712 -0.000429238 0.000688406 -0.00176406 0.000171646 -0.00168826 -0.00176406 -0.00468513 -0.00168826 -0.00419957 -0.00168826 -0.00419957 -0.00154783 -0.00460431 0.00200819 0.00188712 0.00167235 0.000854731 0.00188712 -0.000429238 0.000854731 -0.000621682 0.00167235 0.000854731 0.000872251 0.000362347 0.000854731 -0.000621682 0.000362347 -0.000536137 -0.000429238 -0.00154783 -0.000621682 -0.00107011 0.000889565 0.000372671 0.00168661 0.000863154 0.000372671 -0.000537705 0.000863154 -0.000623218 0.00168661 0.000863154 0.00202356 0.001893 0.000863154 -0.000623218 0.001893 -0.000430892 -0.000623218 -0.00107089 -0.000430892 -0.0015487 0.001893 -0.000430892 0.00200227 0.000169259 -0.0015487 -0.00460395 -0.00168938 -0.00419935 0.000169259 -0.00168938 0.000679956 -0.001765 -0.00168938 -0.00419935 -0.001765 -0.0046852 -0.00409668 -0.00120075 -0.0039262 -0.00100132 0.00289813 0.00346142 0.0044062 0.0047746 0.0044062 0.0047746 0.00609625 0.00624741 0.0062397 0.0063939 0.00457817 0.00490583 0.00457817 0.00490583 0.0030703 0.00358123 -0.0039262 -0.00100132 -0.00377251 -0.000884114 -0.00377251 -0.000884114 -0.0036245 -0.000935843 -0.00267869 -0.00242732 -0.00188413 -0.00164806 -0.0018941 -0.00165495 -0.00267906 -0.00242557 -0.00356114 -0.000973349 -0.00370687 -0.000895267 -0.00389835 -0.000979896 -0.00409597 -0.00115082 -0.00409597 -0.00115082 -0.00428369 -0.00141502 0.00185864 0.0007968 0.00200417 0.000959285 0.0007968 -3.80044e-06 0.000959285 0.000165626 -0.00199702 0.000906333 -0.00185361 0.0010911 -0.00185361 0.0010911 -0.00165508 0.00127483 0.0010911 0.00226234 0.00127483 0.00239453 -0.00165508 0.00127483 -0.00140192 0.00144341 0.00127483 0.00239453 0.00144341 0.00260087 0.000798453 0.00140241 0.000109624 0.000922331 0.00140241 0.00195093 0.000922331 0.00153446 0.000109624 0.000922331 -0.000122683 0.000762076 0.000922331 0.00153446 0.000762076 0.00141185 -0.00403915 -0.00350722 -0.0041492 -0.00380728 -0.0041492 -0.00380728 -0.00416628 -0.00390741 -0.00350722 -0.00374471 -0.00380728 -0.00418053 -0.00374471 -0.0039822 -0.00418053 -0.00431637 -0.00380728 -0.00418053 -0.00390741 -0.00434036 -0.00418053 -0.00431637 -0.00434036 -0.0044346 0.00314961 0.00350345 0.00183457 0.00226797 0.00350345 0.00364143 0.00226797 0.0026707 0.00226797 0.0026707 0.00140241 0.00195093 0.00472673 -0.0011375 0.00430028 -0.00126589 0.00430028 -0.00126589 0.00398749 -0.00132208 0.00398749 -0.00132208 0.00391305 -0.00129731 -0.00141502 0.00142665 -0.00163468 0.00124885 -0.00163468 0.00124885 -0.00186711 0.00105834 -0.00452287 -0.00186711 -0.00454962 -0.0020308 -0.00454962 -0.0020308 -0.00456108 -0.00207251 -0.0044346 -0.00372254 -0.00431147 -0.00361635 -0.00372254 -0.00369383 -0.00361635 -0.00361588 -0.00431147 -0.00361635 -0.00395994 -0.00331199 -0.00361635 -0.00361588 -0.00331199 -0.00341032 -0.00395994 -0.00331199 -0.00339361 -0.00294267 -0.00339361 -0.00294267 -0.00267869 -0.00242732 -0.00294267 -0.00286584 -0.00242732 -0.00232934 -0.00267906 -0.00242557 -0.00333063 -0.00295001 -0.00242557 -0.00233075 -0.00295001 -0.00286365 -0.00333063 -0.00295001 -0.0039822 -0.00330349 -0.0039822 -0.00330349 -0.00431637 -0.00361663 -0.00330349 -0.00341293 -0.00361663 -0.0036157 -0.00431637 -0.00361663 -0.0044346 -0.00372254 -0.00361663 -0.0036157 -0.00372254 -0.00369383 0.010751 0.00607951 0.0109256 0.0057143 0.00398944 0.00360448 0.00492766 0.00503538 0.00503538 0.0044062 0.00648517 0.00609625 0.00648517 0.00609625 0.00794194 0.00783459 0.00794194 0.00783459 0.00922599 0.0095096 0.0090791 0.00952188 0.00794283 0.00792438 0.00794283 0.00792438 0.00657846 0.0062397 0.00657846 0.0062397 0.0051723 0.00457817 0.00503359 0.0051723 0.00412865 0.00375445 0.0051723 0.00457817 0.00375445 0.0030703 0.00375445 0.0030703 0.00253056 0.00181505 0.00327128 0.00253056 0.00254405 0.00160211 0.00253056 0.00181505 0.00160211 0.000851781 0.00582005 0.0108623 0.00617506 0.0107965 0.0108623 0.0129652 0.0107965 0.0126548 0.00617506 0.0107965 0.00649652 0.0105094 0.0107965 0.0126548 0.0105094 0.0120267 0.00649652 0.0105094 0.00672605 0.00999799 0.0105094 0.0120267 0.00999799 0.0109039 0.00999799 0.0109039 0.0090791 0.00952188 0.00922599 0.0095096 0.0102396 0.0110265 0.0102396 0.0110265 0.0109762 0.0121961 -0.00349799 -0.003818 -0.00299982 -0.00327027 -0.003818 -0.00395994 -0.00327027 -0.00339361 -0.00299982 -0.00327027 -0.00246559 -0.0025987 -0.00327027 -0.00339361 -0.0025987 -0.00267869 0.000720097 0.00103893 0.00117957 0.0014481 0.00103893 0.00140517 0.0014481 0.00181209 0.00117957 0.0014481 0.00163904 0.00196922 0.0014481 0.00181209 0.00196922 0.0022994 0.000123652 -0.00296055 0.000107628 -0.0029788 -0.00296055 -0.00471583 -0.0029788 -0.00469759 0.000107628 -0.0029788 6.09062e-05 -0.00300282 -0.0029788 -0.00469759 -0.00300282 -0.00468459 6.19772e-06 -0.00302634 -4.46305e-05 -0.0030428 -0.00302634 -0.00467112 -0.0030428 -0.00464519 -0.000467443 -0.00324097 -0.000387608 -0.00319644 -0.00324097 -0.00514612 -0.00319644 -0.00509022 -0.000387608 -0.00319644 -0.000301055 -0.00314235 -0.00319644 -0.00509022 -0.00314235 -0.00502977 -0.000301055 -0.00314235 -0.000200593 -0.00308914 -0.00314235 -0.00502977 -0.00308914 -0.00496591 -0.000200593 -0.00308914 -0.000101918 -0.00304033 -0.00308914 -0.00496591 -0.00304033 -0.00490281 0.00140517 0.00175718 0.00181209 0.00212926 0.00175718 0.00199756 0.00212926 0.0023172 0.00181209 0.00212926 0.0022994 0.00252219 0.00212926 0.0023172 0.00252219 0.00274499 0.000645232 0.00103867 0.00070325 0.0010788 0.00103867 0.00132697 0.0010788 0.00138328 0.00070325 0.0010788 0.000845906 0.00121895 0.0010788 0.00138328 0.00121895 0.00151577 -0.000101918 -0.00304033 -7.73901e-06 -0.00300142 -0.00304033 -0.00490281 -0.00300142 -0.00484246 -7.73901e-06 -0.00300142 5.85956e-05 -0.00297149 -0.00300142 -0.00484246 -0.00297149 -0.00478935 5.85956e-05 -0.00297149 0.000106426 -0.00295767 -0.00297149 -0.00478935 -0.00295767 -0.00474579 0.000106426 -0.00295767 0.000123652 -0.00296055 -0.00295767 -0.00474579 -0.00296055 -0.00471583 0.00132697 0.000984445 0.00138328 0.000982378 0.00138328 0.000982378 0.00151577 0.0010502 -0.000593998 -0.00329976 -0.00062596 -0.00324913 -0.00062596 -0.00324913 -0.00060891 -0.00323368 -3.86792e-05 -0.00301944 -1.69445e-05 -0.00301815 -0.00301944 -0.00469676 -0.00301815 -0.00472201 -1.69445e-05 -0.00301815 1.21374e-05 -0.00302984 -0.00301815 -0.00472201 -0.00302984 -0.00475791 0.00172527 0.00116843 0.00199756 0.0013522 1.21374e-05 -0.00302984 2.54856e-05 -0.00304333 -0.00302984 -0.00475791 -0.00304333 -0.00480509 2.54856e-05 -0.00304333 1.69082e-05 -0.00305896 -0.000378855 -0.00325275 -0.000449567 -0.00327159 -0.00325275 -0.00518283 -0.00327159 -0.00522456 -0.000449567 -0.00327159 -0.000506861 -0.00328108 -0.00060891 -0.00323368 -0.000564495 -0.00322287 -0.000564495 -0.00322287 -0.000467443 -0.00324097 -3.80044e-06 0.000320716 8.09127e-05 0.000327822 0.000320716 0.000645232 0.000327822 0.00070325 8.09127e-05 0.000327822 0.000165626 0.000472249 0.000327822 0.00070325 0.000472249 0.000845906 1.69082e-05 -0.00305896 -1.51996e-05 -0.00307881 -0.00305896 -0.00484623 -0.00307881 -0.00484551 -1.51996e-05 -0.00307881 -7.13359e-05 -0.00310005 -0.00307881 -0.00484551 -0.00310005 -0.00488668 -7.13359e-05 -0.00310005 -0.000137443 -0.00313573 -0.00310005 -0.00488668 -0.00313573 -0.0049518 -0.000137443 -0.00313573 -0.000223302 -0.00316951 -0.00313573 -0.0049518 -0.00316951 -0.0050642 -0.00503625 -0.00404829 -0.00498789 -0.00396057 -0.00498789 -0.00396057 -0.00493709 -0.00384547 0.000165626 0.000472249 0.000409393 0.000704526 0.000472249 0.000845906 0.000704526 0.0010833 0.000409393 0.000704526 0.000720097 0.00103893 0.000704526 0.0010833 0.00103893 0.00140517 -0.00493709 -0.00384547 -0.00487183 -0.00375649 -0.00487183 -0.00375649 -0.00480543 -0.00366751 0.000845906 0.00121895 0.0010833 0.00144787 0.00121895 0.00151577 0.00144787 0.00172527 0.0010833 0.00144787 0.00140517 0.00175718 0.00144787 0.00172527 0.00175718 0.00199756 0.0013522 -0.000467443 0.00151745 -0.000387608 0.00151745 -0.000387608 0.00175616 -0.000301055 -0.00404829 -0.00366757 -0.00396057 -0.00354071 -0.00366757 -0.00349799 -0.00354071 -0.00324891 -0.00396057 -0.00354071 -0.00384547 -0.00342265 -0.00354071 -0.00324891 -0.00342265 -0.00299982 -0.000506861 -0.00328108 -0.000552965 -0.00328973 -0.00328108 -0.0052458 -0.00328973 -0.00521147 -0.000552965 -0.00328973 -0.000584411 -0.00328983 -0.00328973 -0.00521147 -0.00328983 -0.00520674 -0.000223302 -0.00316951 -0.000310908 -0.00318152 -0.000310908 -0.00318152 -0.000378855 -0.00325275 -0.000584411 -0.00328983 -0.000597217 -0.00329323 -0.00328983 -0.00520674 -0.00329323 -0.00521166 -0.000597217 -0.00329323 -0.000593998 -0.00329976 -0.00329323 -0.00521166 -0.00329976 -0.00521988 -0.000331255 -0.00307184 -0.000261083 -0.00305969 -0.00307184 -0.00458558 -0.00305969 -0.00460178 -0.000261083 -0.00305969 -0.000190912 -0.00304313 -0.00305969 -0.00460178 -0.00304313 -0.00461699 -0.000190912 -0.00304313 -0.000114795 -0.00303047 -0.00304313 -0.00461699 -0.00303047 -0.00463716 -0.000114795 -0.00303047 -3.86792e-05 -0.00301944 -0.00303047 -0.00463716 -0.00301944 -0.00469676 -4.46305e-05 -0.0030428 -0.000145559 -0.00304998 -0.0030428 -0.00464519 -0.00304998 -0.00462341 -0.000145559 -0.00304998 -0.000246488 -0.00306669 -0.00304998 -0.00462341 -0.00306669 -0.00460784 -0.000246488 -0.00306669 -0.000359119 -0.00309069 -0.00306669 -0.00460784 -0.00309069 -0.00460151 -0.000359119 -0.00309069 -0.00047175 -0.00312361 -0.00309069 -0.00460151 -0.00312361 -0.00460304 -0.00224747 0.000293929 -0.00225345 0.000191541 -0.00225345 0.000191541 -0.00226141 0.000115177 -0.00513452 -0.00416628 -0.00512056 -0.00418056 -0.00512056 -0.00418056 -0.00510231 -0.00416091 -0.00469676 -0.00473768 -0.00472201 -0.00471696 -0.00473768 -0.0036245 -0.00471696 -0.00357748 -0.00472201 -0.00471696 -0.00475791 -0.00471223 -0.00471696 -0.00357748 -0.00471223 -0.00353047 -0.00416628 -0.00403685 -0.00418056 -0.00396875 -0.00403685 -0.00390741 -0.00396875 -0.00386281 -0.00418056 -0.00396875 -0.00416091 -0.00388457 -0.00396875 -0.00386281 -0.00388457 -0.00381821 -0.00416091 -0.00388457 -0.00411295 -0.00379481 -0.00388457 -0.00381821 -0.00379481 -0.0036581 -0.00411295 -0.00379481 -0.00404829 -0.00366757 -0.00379481 -0.0036581 -0.00366757 -0.00349799 -0.00510231 -0.00416091 -0.00507485 -0.00411295 -0.00507485 -0.00411295 -0.00503625 -0.00404829 -0.00475791 -0.00471223 -0.00480509 -0.0047178 -0.00471223 -0.00353047 -0.0047178 -0.00352375 -0.00480509 -0.0047178 -0.00484623 -0.00474657 -0.0047178 -0.00352375 -0.00474657 -0.00350832 -0.00353047 -0.00232186 -0.00352375 -0.00235524 -0.00232186 -0.00111324 -0.00235524 -0.00129693 -0.00352375 -0.00235524 -0.00350832 -0.00248499 -0.00235524 -0.00129693 -0.00248499 -0.00146165 0.00624741 0.00609508 0.00697919 0.00665927 0.00609508 0.00519089 0.00665927 0.00551032 0.00697919 0.00665927 0.00771098 0.0071758 0.00665927 0.00551032 0.0071758 0.00578054 -0.00047175 -0.00312361 -0.000579077 -0.00316485 -0.00312361 -0.00460304 -0.00316485 -0.0046104 -0.000579077 -0.00316485 -0.000686405 -0.00321046 -0.00316485 -0.0046104 -0.00321046 -0.0046213 0.00771098 0.0071758 0.00836334 0.00764072 0.0071758 0.00578054 0.00764072 0.00600079 0.00836334 0.00764072 0.00901571 0.00800531 0.00764072 0.00600079 0.00800531 0.00619994 0.00141185 0.00110108 0.00147349 0.00113932 0.00147349 0.00113932 0.00153514 0.00122622 0.00113932 -0.000451143 0.00122622 -0.000404451 -0.00383482 -0.00205668 -0.00384562 -0.00216417 -0.00205668 0.00058502 -0.00216417 0.000427154 -0.00384562 -0.00216417 -0.00389432 -0.00224747 -0.00216417 0.000427154 -0.00224747 0.000293929 0.00058502 0.00211472 0.000427154 0.00188673 0.00211472 0.00254405 0.00188673 0.00225298 0.000427154 0.00188673 0.000293929 0.00170393 0.00188673 0.00225298 0.00170393 0.00204937 0.000293929 0.00170393 0.000191541 0.00157782 0.00170393 0.00204937 0.00157782 0.001954 0.00157782 0.001954 0.00151056 0.00185864 0.00519089 0.00313275 0.00551032 0.00323225 0.00313275 0.000123652 0.00323225 0.000107628 0.00551032 0.00323225 0.00578054 0.00326562 0.00323225 0.000107628 0.00326562 6.09062e-05 0.00100297 0.00305809 0.00109483 0.00330765 0.00305809 0.00398944 0.00330765 0.00445855 0.00109483 0.00330765 0.00115904 0.00353586 0.00330765 0.00445855 0.00353586 0.00492766 0.00115904 0.00353586 0.00120463 0.00371648 0.00120463 0.00371648 0.00122585 0.00388485 0.00578054 0.00326562 0.00600079 0.00322017 0.00326562 6.09062e-05 0.00322017 6.19772e-06 0.00600079 0.00322017 0.00619994 0.00307765 0.00322017 6.19772e-06 0.00307765 -4.46305e-05 0.00153514 0.00122622 0.00174655 0.00135194 0.00122622 -0.000404451 0.00135194 -0.000317439 0.00174655 0.00135194 0.00195796 0.00155537 0.00135194 -0.000317439 0.00155537 -0.00019846 0.00274499 0.00175616 0.00317955 0.0020004 0.00175616 -0.000301055 0.0020004 -0.000200593 0.00317955 0.0020004 0.00361411 0.00226377 0.0020004 -0.000200593 0.00226377 -0.000101918 0.00122585 0.00388485 0.00122981 0.00402395 0.00122981 0.00402395 0.00121261 0.00414619 0.00121261 0.00414619 0.0011822 0.00420163 0.00414619 0.00634343 0.00420163 0.00658792 0.0011822 0.00420163 0.00112866 0.00420807 0.00420163 0.00658792 0.00420807 0.0067713 -0.0035151 -0.00179698 -0.00334619 -0.00174106 -0.00179698 0.00100297 -0.00174106 0.00109483 -0.00334619 -0.00174106 -0.00323609 -0.00168578 -0.00174106 0.00109483 -0.00168578 0.00115904 -0.00323609 -0.00168578 -0.00314659 -0.0016466 -0.00168578 0.00115904 -0.0016466 0.00120463 -0.00314659 -0.0016466 -0.00307168 -0.00162049 -0.0016466 0.00120463 -0.00162049 0.00122585 0.00226377 -0.000101918 0.00250701 -7.73901e-06 0.00250701 -7.73901e-06 0.00277287 5.85956e-05 0.00442568 0.00277287 0.00482623 0.00297683 0.00277287 5.85956e-05 0.00297683 0.000106426 0.00482623 0.00297683 0.00519089 0.00313275 0.00297683 0.000106426 0.00313275 0.000123652 0.00109996 0.00414761 0.00118357 0.00417935 0.00414761 0.00664187 0.00417935 0.00650592 0.00118357 0.00417935 0.00124349 0.00416 0.00417935 0.00650592 0.00416 0.00631454 0.00124349 0.00416 0.00128285 0.00409296 0.00416 0.00631454 0.00409296 0.00606366 0.00128285 0.00409296 0.0013075 0.00396454 -0.00226141 0.000115177 -0.00225608 0.000124456 -0.00225608 0.000124456 -0.00223493 0.000216723 0.00918816 0.00820675 0.00853063 0.00780868 0.00820675 0.00634661 0.00780868 0.00610728 0.00853063 0.00780868 0.0078731 0.00731492 0.00780868 0.00610728 0.00731492 0.00585123 0.0078731 0.00731492 0.0071335 0.00677475 0.00731492 0.00585123 0.00677475 0.00554928 0.0071335 0.00677475 0.0063939 0.00619046 0.00677475 0.00554928 0.00619046 0.00520377 0.00634661 0.00315397 0.00610728 0.00325074 0.00315397 -3.86792e-05 0.00325074 -1.69445e-05 0.00610728 0.00325074 0.00585123 0.00325513 0.00325074 -1.69445e-05 0.00325513 1.21374e-0