# vtk DataFile Version 3.0
#This file was generated by the deal.II library on 2023/3/7 at 15:22:40
ASCII
DATASET UNSTRUCTURED_GRID

FIELD FieldData 2
CYCLE 1 1 int
29
TIME 1 1 double
0.058
POINTS 72544 double
2 0 0
1.99759 1.22465e-16 0.0981353
2.0012 0.0490677 0
1.99879 0.0490677 0.0981945
1.99759 1.22465e-16 0.0981353
1.99037 1.22465e-16 0.196034
1.99879 0.0490677 0.0981945
1.99157 0.0490677 0.196152
2.0012 0.0490677 0
1.99879 0.0490677 0.0981945
2.00482 0.0980171 0
2.0024 0.0980171 0.0983716
1.99879 0.0490677 0.0981945
1.99157 0.0490677 0.196152
2.0024 0.0980171 0.0983716
1.99516 0.0980171 0.196506
1.99037 1.22465e-16 0.196034
1.97835 1.22465e-16 0.293461
1.99157 0.0490677 0.196152
1.97954 0.0490677 0.293638
1.97835 1.22465e-16 0.293461
1.96157 1.22465e-16 0.390181
1.97954 0.0490677 0.293638
1.96275 0.0490677 0.390416
1.99157 0.0490677 0.196152
1.97954 0.0490677 0.293638
1.99516 0.0980171 0.196506
1.98312 0.0980171 0.294167
1.97954 0.0490677 0.293638
1.96275 0.0490677 0.390416
1.98312 0.0980171 0.294167
1.96629 0.0980171 0.39112
2.00482 0.0980171 0
2.0024 0.0980171 0.0983716
2.01082 0.14673 0
2.0084 0.14673 0.0986664
2.0024 0.0980171 0.0983716
1.99516 0.0980171 0.196506
2.0084 0.14673 0.0986664
2.00114 0.14673 0.197095
2.01082 0.14673 0
2.0084 0.14673 0.0986664
2.01921 0.19509 0
2.01678 0.19509 0.0990782
2.0084 0.14673 0.0986664
2.00114 0.14673 0.197095
2.01678 0.19509 0.0990782
2.00949 0.19509 0.197918
1.99516 0.0980171 0.196506
1.98312 0.0980171 0.294167
2.00114 0.14673 0.197095
1.98906 0.14673 0.295049
1.98312 0.0980171 0.294167
1.96629 0.0980171 0.39112
1.98906 0.14673 0.295049
1.97219 0.14673 0.392292
2.00114 0.14673 0.197095
1.98906 0.14673 0.295049
2.00949 0.19509 0.197918
1.99736 0.19509 0.29628
1.98906 0.14673 0.295049
1.97219 0.14673 0.392292
1.99736 0.19509 0.29628
1.98042 0.19509 0.393929
1.96157 1.22465e-16 0.390181
1.94006 1.22465e-16 0.48596
1.96275 0.0490677 0.390416
1.94123 0.0490677 0.486253
1.94006 1.22465e-16 0.48596
1.91388 1.22465e-16 0.580569
1.94123 0.0490677 0.486253
1.91503 0.0490677 0.580919
1.96275 0.0490677 0.390416
1.94123 0.0490677 0.486253
1.96629 0.0980171 0.39112
1.94473 0.0980171 0.48713
1.94123 0.0490677 0.486253
1.91503 0.0490677 0.580919
1.94473 0.0980171 0.48713
1.91849 0.0980171 0.581967
1.91388 1.22465e-16 0.580569
1.88309 1.22465e-16 0.67378
1.91503 0.0490677 0.580919
1.88422 0.0490677 0.674186
1.88309 1.22465e-16 0.67378
1.84776 1.22465e-16 0.765367
1.88422 0.0490677 0.674186
1.84887 0.0490677 0.765828
1.91503 0.0490677 0.580919
1.88422 0.0490677 0.674186
1.91849 0.0980171 0.581967
1.88762 0.0980171 0.675402
1.88422 0.0490677 0.674186
1.84887 0.0490677 0.765828
1.88762 0.0980171 0.675402
1.85221 0.0980171 0.76721
1.96629 0.0980171 0.39112
1.94473 0.0980171 0.48713
1.97219 0.14673 0.392292
1.95056 0.14673 0.48859
1.94473 0.0980171 0.48713
1.91849 0.0980171 0.581967
1.95056 0.14673 0.48859
1.92424 0.14673 0.583711
1.97219 0.14673 0.392292
1.95056 0.14673 0.48859
1.98042 0.19509 0.393929
1.9587 0.19509 0.490629
1.95056 0.14673 0.48859
1.92424 0.14673 0.583711
1.9587 0.19509 0.490629
1.93227 0.19509 0.586147
1.91849 0.0980171 0.581967
1.88762 0.0980171 0.675402
1.92424 0.14673 0.583711
1.89328 0.14673 0.677426
1.88762 0.0980171 0.675402
1.85221 0.0980171 0.76721
1.89328 0.14673 0.677426
1.85776 0.14673 0.769509
1.92424 0.14673 0.583711
1.89328 0.14673 0.677426
1.93227 0.19509 0.586147
1.90118 0.19509 0.680253
1.89328 0.14673 0.677426
1.85776 0.14673 0.769509
1.90118 0.19509 0.680253
1.86551 0.19509 0.77272
2.01921 0.19509 0
2.01678 0.19509 0.0990782
2.02997 0.24298 0
2.02752 0.24298 0.0996058
2.01678 0.19509 0.0990782
2.00949 0.19509 0.197918
2.02752 0.24298 0.0996058
2.02019 0.24298 0.198972
2.02997 0.24298 0
2.02752 0.24298 0.0996058
2.04306 0.290285 0
2.0406 0.290285 0.100248
2.02752 0.24298 0.0996058
2.02019 0.24298 0.198972
2.0406 0.290285 0.100248
2.03322 0.290285 0.200255
2.00949 0.19509 0.197918
1.99736 0.19509 0.29628
2.02019 0.24298 0.198972
2.008 0.24298 0.297858
1.99736 0.19509 0.29628
1.98042 0.19509 0.393929
2.008 0.24298 0.297858
1.99096 0.24298 0.396027
2.02019 0.24298 0.198972
2.008 0.24298 0.297858
2.03322 0.290285 0.200255
2.02095 0.290285 0.299779
2.008 0.24298 0.297858
1.99096 0.24298 0.396027
2.02095 0.290285 0.299779
2.0038 0.290285 0.398581
2.04306 0.290285 0
2.0406 0.290285 0.100248
2.05846 0.33689 0
2.05598 0.33689 0.101004
2.0406 0.290285 0.100248
2.03322 0.290285 0.200255
2.05598 0.33689 0.101004
2.04854 0.33689 0.201764
2.05846 0.33689 0
2.05598 0.33689 0.101004
2.07612 0.382683 0
2.07362 0.382683 0.10187
2.05598 0.33689 0.101004
2.04854 0.33689 0.201764
2.07362 0.382683 0.10187
2.06612 0.382683 0.203495
2.03322 0.290285 0.200255
2.02095 0.290285 0.299779
2.04854 0.33689 0.201764
2.03618 0.33689 0.302038
2.02095 0.290285 0.299779
2.0038 0.290285 0.398581
2.03618 0.33689 0.302038
2.0189 0.33689 0.401585
2.04854 0.33689 0.201764
2.03618 0.33689 0.302038
2.06612 0.382683 0.203495
2.05365 0.382683 0.30463
2.03618 0.33689 0.302038
2.0189 0.33689 0.401585
2.05365 0.382683 0.30463
2.03623 0.382683 0.405031
1.98042 0.19509 0.393929
1.9587 0.19509 0.490629
1.99096 0.24298 0.396027
1.96913 0.24298 0.493242
1.9587 0.19509 0.490629
1.93227 0.19509 0.586147
1.96913 0.24298 0.493242
1.94256 0.24298 0.589269
1.99096 0.24298 0.396027
1.96913 0.24298 0.493242
2.0038 0.290285 0.398581
1.98183 0.290285 0.496423
1.96913 0.24298 0.493242
1.94256 0.24298 0.589269
1.98183 0.290285 0.496423
1.95509 0.290285 0.593069
1.93227 0.19509 0.586147
1.90118 0.19509 0.680253
1.94256 0.24298 0.589269
1.91131 0.24298 0.683876
1.90118 0.19509 0.680253
1.86551 0.19509 0.77272
1.91131 0.24298 0.683876
1.87545 0.24298 0.776835
1.94256 0.24298 0.589269
1.91131 0.24298 0.683876
1.95509 0.290285 0.593069
1.92363 0.290285 0.688286
1.91131 0.24298 0.683876
1.87545 0.24298 0.776835
1.92363 0.290285 0.688286
1.88754 0.290285 0.781845
2.0038 0.290285 0.398581
1.98183 0.290285 0.496423
2.0189 0.33689 0.401585
1.99677 0.33689 0.500164
1.98183 0.290285 0.496423
1.95509 0.290285 0.593069
1.99677 0.33689 0.500164
1.96982 0.33689 0.597538
2.0189 0.33689 0.401585
1.99677 0.33689 0.500164
2.03623 0.382683 0.405031
2.0139 0.382683 0.504456
1.99677 0.33689 0.500164
1.96982 0.33689 0.597538
2.0139 0.382683 0.504456
1.98672 0.382683 0.602666
1.95509 0.290285 0.593069
1.92363 0.290285 0.688286
1.96982 0.33689 0.597538
1.93813 0.33689 0.693473
1.92363 0.290285 0.688286
1.88754 0.290285 0.781845
1.93813 0.33689 0.693473
1.90177 0.33689 0.787737
1.96982 0.33689 0.597538
1.93813 0.33689 0.693473
1.98672 0.382683 0.602666
1.95476 0.382683 0.699424
1.93813 0.33689 0.693473
1.90177 0.33689 0.787737
1.95476 0.382683 0.699424
1.91809 0.382683 0.794497
1.84776 1.22465e-16 0.765367
1.80798 1.22465e-16 0.85511
1.84887 0.0490677 0.765828
1.80907 0.0490677 0.855625
1.80798 1.22465e-16 0.85511
1.76384 1.22465e-16 0.942793
1.80907 0.0490677 0.855625
1.7649 0.0490677 0.943361
1.84887 0.0490677 0.765828
1.80907 0.0490677 0.855625
1.85221 0.0980171 0.76721
1.81233 0.0980171 0.857169
1.80907 0.0490677 0.855625
1.7649 0.0490677 0.943361
1.81233 0.0980171 0.857169
1.76809 0.0980171 0.945063
1.76384 1.22465e-16 0.942793
1.71546 1.22465e-16 1.02821
1.7649 0.0490677 0.943361
1.71649 0.0490677 1.02882
1.71546 1.22465e-16 1.02821
1.66294 1.22465e-16 1.11114
1.71649 0.0490677 1.02882
1.66394 0.0490677 1.11181
1.7649 0.0490677 0.943361
1.71649 0.0490677 1.02882
1.76809 0.0980171 0.945063
1.71959 0.0980171 1.03068
1.71649 0.0490677 1.02882
1.66394 0.0490677 1.11181
1.71959 0.0980171 1.03068
1.66694 0.0980171 1.11382
1.85221 0.0980171 0.76721
1.81233 0.0980171 0.857169
1.85776 0.14673 0.769509
1.81776 0.14673 0.859738
1.81233 0.0980171 0.857169
1.76809 0.0980171 0.945063
1.81776 0.14673 0.859738
1.77339 0.14673 0.947896
1.85776 0.14673 0.769509
1.81776 0.14673 0.859738
1.86551 0.19509 0.77272
1.82535 0.19509 0.863326
1.81776 0.14673 0.859738
1.77339 0.14673 0.947896
1.82535 0.19509 0.863326
1.78079 0.19509 0.951851
1.76809 0.0980171 0.945063
1.71959 0.0980171 1.03068
1.77339 0.14673 0.947896
1.72474 0.14673 1.03377
1.71959 0.0980171 1.03068
1.66694 0.0980171 1.11382
1.72474 0.14673 1.03377
1.67194 0.14673 1.11715
1.77339 0.14673 0.947896
1.72474 0.14673 1.03377
1.78079 0.19509 0.951851
1.73194 0.19509 1.03808
1.72474 0.14673 1.03377
1.67194 0.14673 1.11715
1.73194 0.19509 1.03808
1.67892 0.19509 1.12182
1.66294 1.22465e-16 1.11114
1.60642 1.22465e-16 1.1914
1.66394 0.0490677 1.11181
1.60738 0.0490677 1.19212
1.60642 1.22465e-16 1.1914
1.54602 1.22465e-16 1.26879
1.60738 0.0490677 1.19212
1.54695 0.0490677 1.26955
1.66394 0.0490677 1.11181
1.60738 0.0490677 1.19212
1.66694 0.0980171 1.11382
1.61028 0.0980171 1.19427
1.60738 0.0490677 1.19212
1.54695 0.0490677 1.26955
1.61028 0.0980171 1.19427
1.54974 0.0980171 1.27184
1.54602 1.22465e-16 1.26879
1.4819 1.22465e-16 1.34312
1.54695 0.0490677 1.26955
1.48279 0.0490677 1.34393
1.4819 1.22465e-16 1.34312
1.41421 1.22465e-16 1.41421
1.48279 0.0490677 1.34393
1.41507 0.0490677 1.41507
1.54695 0.0490677 1.26955
1.48279 0.0490677 1.34393
1.54974 0.0980171 1.27184
1.48547 0.0980171 1.34635
1.48279 0.0490677 1.34393
1.41507 0.0490677 1.41507
1.48547 0.0980171 1.34635
1.41762 0.0980171 1.41762
1.66694 0.0980171 1.11382
1.61028 0.0980171 1.19427
1.67194 0.14673 1.11715
1.61511 0.14673 1.19785
1.61028 0.0980171 1.19427
1.54974 0.0980171 1.27184
1.61511 0.14673 1.19785
1.55439 0.14673 1.27565
1.67194 0.14673 1.11715
1.61511 0.14673 1.19785
1.67892 0.19509 1.12182
1.62185 0.19509 1.20284
1.61511 0.14673 1.19785
1.55439 0.14673 1.27565
1.62185 0.19509 1.20284
1.56087 0.19509 1.28098
1.54974 0.0980171 1.27184
1.48547 0.0980171 1.34635
1.55439 0.14673 1.27565
1.48992 0.14673 1.35039
1.48547 0.0980171 1.34635
1.41762 0.0980171 1.41762
1.48992 0.14673 1.35039
1.42187 0.14673 1.42187
1.55439 0.14673 1.27565
1.48992 0.14673 1.35039
1.56087 0.19509 1.28098
1.49614 0.19509 1.35602
1.48992 0.14673 1.35039
1.42187 0.14673 1.42187
1.49614 0.19509 1.35602
1.4278 0.19509 1.4278
1.86551 0.19509 0.77272
[...]
POINT_DATA 72544
SCALARS U double 1
LOOKUP_TABLE default
0.000732461 0.000888645 0.000732186 0.000888389 0.000888645 0.00103236 0.000888389 0.0010321 0.000732186 0.000888389 0.000731362 0.000887621 0.000888389 0.0010321 0.000887621 0.00103134 0.00103236 0.00115395 0.0010321 0.00115367 0.00115395 0.00124703 0.00115367 0.00124668 0.0010321 0.00115367 0.00103134 0.00115281 0.00115367 0.00124668 0.00115281 0.00124566 0.000731362 0.000887621 0.000729992 0.000886347 0.000887621 0.00103134 0.000886347 0.00103006 0.000729992 0.000886347 0.000728085 0.000884573 0.000886347 0.00103006 0.000884573 0.00102828 0.00103134 0.00115281 0.00103006 0.00115138 0.00115281 0.00124566 0.00115138 0.00124395 0.00103006 0.00115138 0.00102828 0.00114941 0.00115138 0.00124395 0.00114941 0.00124158 0.00124703 0.00130911 0.00124668 0.00130869 0.00130911 0.00134157 0.00130869 0.00134109 0.00124668 0.00130869 0.00124566 0.00130746 0.00130869 0.00134109 0.00130746 0.00133966 0.00134157 0.00134907 0.00134109 0.00134855 0.00134907 0.0013385 0.00134855 0.00133797 0.00134109 0.00134855 0.00133966 0.001347 0.00134855 0.00133797 0.001347 0.00133638 0.00124566 0.00130746 0.00124395 0.0013054 0.00130746 0.00133966 0.0013054 0.00133729 0.00124395 0.0013054 0.00124158 0.00130255 0.0013054 0.00133729 0.00130255 0.00133399 0.00133966 0.001347 0.00133729 0.00134442 0.001347 0.00133638 0.00134442 0.00133375 0.00133729 0.00134442 0.00133399 0.00134083 0.00134442 0.00133375 0.00134083 0.0013301 0.000728085 0.000884573 0.000725649 0.00088231 0.000884573 0.00102828 0.00088231 0.00102602 0.000725649 0.00088231 0.000722695 0.000879568 0.00088231 0.00102602 0.000879568 0.00102329 0.00102828 0.00114941 0.00102602 0.00114689 0.00114941 0.00124158 0.00114689 0.00123857 0.00102602 0.00114689 0.00102329 0.00114385 0.00114689 0.00123857 0.00114385 0.00123495 0.000722695 0.000879568 0.000719235 0.000876363 0.000879568 0.00102329 0.000876363 0.0010201 0.000719235 0.000876363 0.000715282 0.000872706 0.000876363 0.0010201 0.000872706 0.00101648 0.00102329 0.00114385 0.0010201 0.00114033 0.00114385 0.00123495 0.00114033 0.00123075 0.0010201 0.00114033 0.00101648 0.00113635 0.00114033 0.00123075 0.00113635 0.00122603 0.00124158 0.00130255 0.00123857 0.00129893 0.00130255 0.00133399 0.00129893 0.0013298 0.00123857 0.00129893 0.00123495 0.00129457 0.00129893 0.0013298 0.00129457 0.00132477 0.00133399 0.00134083 0.0013298 0.00133629 0.00134083 0.0013301 0.00133629 0.00132549 0.0013298 0.00133629 0.00132477 0.00133084 0.00133629 0.00132549 0.00133084 0.00131997 0.00123495 0.00129457 0.00123075 0.00128953 0.00129457 0.00132477 0.00128953 0.00131897 0.00123075 0.00128953 0.00122603 0.00128388 0.00128953 0.00131897 0.00128388 0.00131248 0.00132477 0.00133084 0.00131897 0.00132457 0.00133084 0.00131997 0.00132457 0.00131364 0.00131897 0.00132457 0.00131248 0.00131758 0.00132457 0.00131364 0.00131758 0.00130659 0.0013385 0.00131757 0.00133797 0.00131706 0.00131757 0.00129335 0.00131706 0.00129286 0.00133797 0.00131706 0.00133638 0.00131552 0.00131706 0.00129286 0.00131552 0.00129143 0.00129335 0.001271 0.00129286 0.00127055 0.001271 0.00125336 0.00127055 0.00125293 0.00129286 0.00127055 0.00129143 0.00126922 0.00127055 0.00125293 0.00126922 0.00125166 0.00133638 0.00131552 0.00133375 0.00131298 0.00131552 0.00129143 0.00131298 0.00128906 0.00133375 0.00131298 0.0013301 0.00130947 0.00131298 0.00128906 0.00130947 0.0012858 0.00129143 0.00126922 0.00128906 0.00126702 0.00126922 0.00125166 0.00126702 0.00124955 0.00128906 0.00126702 0.0012858 0.001264 0.00126702 0.00124955 0.001264 0.00124665 0.00125336 0.00124142 0.00125293 0.00124098 0.00124142 0.00123544 0.00124098 0.00123499 0.00125293 0.00124098 0.00125166 0.00123969 0.00124098 0.00123499 0.00123969 0.00123362 0.00123544 0.00123625 0.00123499 0.00123576 0.00123625 0.0012457 0.00123576 0.00124517 0.00123499 0.00123576 0.00123362 0.00123427 0.00123576 0.00124517 0.00123427 0.00124357 0.00125166 0.00123969 0.00124955 0.00123756 0.00123969 0.00123362 0.00123756 0.00123133 0.00124955 0.00123756 0.00124665 0.0012346 0.00123756 0.00123133 0.0012346 0.00122813 0.00123362 0.00123427 0.00123133 0.00123177 0.00123427 0.00124357 0.00123177 0.00124085 0.00123133 0.00123177 0.00122813 0.00122823 0.00123177 0.00124085 0.00122823 0.00123697 0.0013301 0.00130947 0.00132549 0.00130505 0.00130947 0.0012858 0.00130505 0.0012817 0.00132549 0.00130505 0.00131997 0.00129977 0.00130505 0.0012817 0.00129977 0.00127683 0.0012858 0.001264 0.0012817 0.0012602 0.001264 0.00124665 0.0012602 0.001243 0.0012817 0.0012602 0.00127683 0.0012557 0.0012602 0.001243 0.0012557 0.00123865 0.00131997 0.00129977 0.00131364 0.00129373 0.00129977 0.00127683 0.00129373 0.00127127 0.00131364 0.00129373 0.00130659 0.00128703 0.00129373 0.00127127 0.00128703 0.00126511 0.00127683 0.0012557 0.00127127 0.00125056 0.0012557 0.00123865 0.00125056 0.00123366 0.00127127 0.00125056 0.00126511 0.00124487 0.00125056 0.00123366 0.00124487 0.00122809 0.00124665 0.0012346 0.001243 0.00123084 0.0012346 0.00122813 0.00123084 0.00122403 0.001243 0.00123084 0.00123865 0.00122632 0.00123084 0.00122403 0.00122632 0.00121901 0.00122813 0.00122823 0.00122403 0.00122362 0.00122823 0.00123697 0.00122362 0.00123186 0.00122403 0.00122362 0.00121901 0.0012179 0.00122362 0.00123186 0.0012179 0.00122542 0.00123865 0.00122632 0.00123366 0.00122107 0.00122632 0.00121901 0.00122107 0.0012131 0.00123366 0.00122107 0.00122809 0.00121514 0.00122107 0.0012131 0.00121514 0.00120631 0.00121901 0.0012179 0.0012131 0.00121106 0.0012179 0.00122542 0.00121106 0.00121758 0.0012131 0.00121106 0.00120631 0.00120306 0.00121106 0.00121758 0.00120306 0.00120829 0.000715282 0.000872706 0.000710848 0.000868612 0.000872706 0.00101648 0.000868612 0.00101245 0.000710848 0.000868612 0.000705945 0.000864087 0.000868612 0.00101245 0.000864087 0.00100802 0.00101648 0.00113635 0.00101245 0.00113195 0.00113635 0.00122603 0.00113195 0.00122084 0.00101245 0.00113195 0.00100802 0.00112715 0.00113195 0.00122084 0.00112715 0.00121524 0.000705945 0.000864087 0.000700582 0.000859141 0.000864087 0.00100802 0.000859141 0.00100321 0.000700582 0.000859141 0.000694771 0.000853773 0.000859141 0.00100321 0.000853773 0.000998009 0.00100802 0.00112715 0.00100321 0.00112199 0.00112715 0.00121524 0.00112199 0.00120928 0.00100321 0.00112199 0.000998009 0.00111648 0.00112199 0.00120928 0.00111648 0.001203 0.00122603 0.00128388 0.00122084 0.00127769 0.00128388 0.00131248 0.00127769 0.0013054 0.00122084 0.00127769 0.00121524 0.00127106 0.00127769 0.0013054 0.00127106 0.00129785 0.00131248 0.00131758 0.0013054 0.00130997 0.00131758 0.00130659 0.00130997 0.00129896 0.0013054 0.00130997 0.00129785 0.00130189 0.00130997 0.00129896 0.00130189 0.00129087 0.00121524 0.00127106 0.00120928 0.00126407 0.00127106 0.00129785 0.00126407 0.00128994 0.00120928 0.00126407 0.001203 0.00125679 0.00126407 0.00128994 0.00125679 0.00128178 0.00129785 0.00130189 0.00128994 0.00129347 0.00130189 0.00129087 0.00129347 0.00128247 0.00128994 0.00129347 0.00128178 0.00128485 0.00129347 0.00128247 0.00128485 0.0012739 0.000694771 0.000853773 0.000688516 0.000847983 0.000853773 0.000998009 0.000847983 0.00099242 0.000688516 0.000847983 0.000681827 0.000841759 0.000847983 0.00099242 0.000841759 0.000986425 0.000998009 0.00111648 0.00099242 0.00111063 0.00111648 0.001203 0.00111063 0.00119643 0.00099242 0.00111063 0.000986425 0.00110442 0.00111063 0.00119643 0.00110442 0.00118957 0.000681827 0.000841759 0.000674711 0.000835095 0.000841759 0.000986425 0.000835095 0.000979998 0.000674711 0.000835095 0.00066718 0.000827973 0.000835095 0.000979998 0.000827973 0.000973104 0.000986425 0.00110442 0.000979998 0.00109781 0.00110442 0.00118957 0.00109781 0.00118241 0.000979998 0.00109781 0.000973104 0.00109077 0.00109781 0.00118241 0.00109077 0.00117489 0.001203 0.00125679 0.00119643 0.00124929 0.00125679 0.00128178 0.00124929 0.00127347 0.00119643 0.00124929 0.00118957 0.0012416 0.00124929 0.00127347 0.0012416 0.00126507 0.00128178 0.00128485 0.00127347 0.00127613 0.00128485 0.0012739 0.00127613 0.00126528 0.00127347 0.00127613 0.00126507 0.00126743 0.00127613 0.00126528 0.00126743 0.00125672 0.00118957 0.0012416 0.00118241 0.00123372 0.0012416 0.00126507 0.00123372 0.00125663 0.00118241 0.00123372 0.00117489 0.00122561 0.00123372 0.00125663 0.00122561 0.00124812 0.00126507 0.00126743 0.00125663 0.00125879 0.00126743 0.00125672 0.00125879 0.00124829 0.00125663 0.00125879 0.00124812 0.00125025 0.00125879 0.00124829 0.00125025 0.00124003 0.00130659 0.00128703 0.00129896 0.0012798 0.00128703 0.00126511 0.0012798 0.00125847 0.00129896 0.0012798 0.00129087 0.00127214 0.0012798 0.00125847 0.00127214 0.00125143 0.00126511 0.00124487 0.00125847 0.0012387 0.00124487 0.00122809 0.0012387 0.00122201 0.00125847 0.0012387 0.00125143 0.00123214 0.0012387 0.00122201 0.00123214 0.00121545 0.00129087 0.00127214 0.00128247 0.0012642 0.00127214 0.00125143 0.0012642 0.00124411 0.00128247 0.0012642 0.0012739 0.00125609 0.0012642 0.00124411 0.00125609 0.00123658 0.00125143 0.00123214 0.00124411 0.00122524 0.00123214 0.00121545 0.00122524 0.00120847 0.00124411 0.00122524 0.00123658 0.00121806 0.00122524 0.00120847 0.00121806 0.00120107 0.00122809 0.00121514 0.00122201 0.00120856 0.00121514 0.00120631 0.00120856 0.00119865 0.00122201 0.00120856 0.00121545 0.00120137 0.00120856 0.00119865 0.00120137 0.00119014 0.00120631 0.00120306 0.00119865 0.0011939 0.00120306 0.00120829 0.0011939 0.00119751 0.00119865 0.0011939 0.00119014 0.00118358 0.0011939 0.00119751 0.00118358 0.00118521 0.00121545 0.00120137 0.00120847 0.00119357 0.00120137 0.00119014 0.00119357 0.0011808 0.00120847 0.00119357 0.00120107 0.00118519 0.00119357 0.0011808 0.00118519 0.00117063 0.00119014 0.00118358 0.0011808 0.00117213 0.00118358 0.00118521 0.00117213 0.00117142 0.0011808 0.00117213 0.00117063 0.00115957 0.00117213 0.00117142 0.00115957 0.00115621 0.0012739 0.00125609 0.00126528 0.00124793 0.00125609 0.00123658 0.00124793 0.00122893 0.00126528 0.00124793 0.00125672 0.0012398 0.00124793 0.00122893 0.0012398 0.00122121 0.00123658 0.00121806 0.00122893 0.00121063 0.00121806 0.00120107 0.00121063 0.00119325 0.00122893 0.00121063 0.00122121 0.00120296 0.00121063 0.00119325 0.00120296 0.00118499 0.00125672 0.0012398 0.00124829 0.00123177 0.0012398 0.00122121 0.00123177 0.00121346 0.00124829 0.00123177 0.00124003 0.00122387 0.00123177 0.00121346 0.00122387 0.00120567 0.00122121 0.00120296 0.00121346 0.00119504 0.00120296 0.00118499 0.00119504 0.00117625 0.00121346 0.00119504 0.00120567 0.00118684 0.00119504 0.00117625 0.00118684 0.00116695 0.00120107 0.00118519 0.00119325 0.00117619 0.00118519 0.00117063 0.00117619 0.00115964 0.00119325 0.00117619 0.00118499 0.00116655 0.00117619 0.00115964 0.00116655 0.00114782 0.00117063 0.00115957 0.00115964 0.00114596 0.00115957 0.00115621 0.00114596 0.00113967 0.00115964 0.00114596 0.00114782 0.00113134 0.00114596 0.00113967 0.00113134 0.00112192 0.00118499 0.00116655 0.00117625 0.00115621 0.00116655 0.00114782 0.00115621 0.00113516 0.00117625 0.00115621 0.00116695 0.00114511 0.00115621 0.00113516 0.00114511 0.00112162 0.00114782 0.00113134 0.00113516 0.00111577 0.00113134 0.00112192 0.00111577 0.00110312 0.00113516 0.00111577 0.00112162 0.00109931 0.00111577 0.00110312 0.00109931 0.00108342 0.0012457 0.00126609 0.00124517 0.00126554 0.00126609 0.00129878 0.00126554 0.00129823 0.00124517 0.00126554 0.00124357 0.00126388 0.00126554 0.00129823 0.00126388 0.00129658 0.00129878 0.00134268 0.00129823 0.00134217 0.00134268 0.0013938 0.00134217 0.00139332 0.00129823 0.00134217 0.00129658 0.00134058 0.00134217 0.00139332 0.00134058 0.00139183 0.00124357 0.00126388 0.00124085 0.00126104 0.00126388 0.00129658 0.00126104 0.00129373 0.00124085 0.00126104 0.00123697 0.00125693 0.00126104 0.00129373 0.00125693 0.00128957 0.00129658 0.00134058 0.00129373 0.00133783 0.00134058 0.00139183 0.00133783 0.00138921 0.00129373 0.00133783 0.00128957 0.00133376 0.00133783 0.00138921 0.00133376 0.00138529 0.0013938 0.00144606 0.00139332 0.0014456 0.00144606 0.00149319 0.0014456 0.00149271 0.00139332 0.0014456 0.00139183 0.00144417 0.0014456 0.00149271 0.00144417 0.00149124 0.00149319 0.0015305 0.00149271 0.00152996 0.0015305 0.00155585 0.00152996 0.00155519 0.00149271 0.00152996 0.00149124 0.00152831 0.00152996 0.00155519 0.00152831 0.0015532 0.00139183 0.00144417 0.00138921 0.00144164 0.00144417 0.00149124 0.00144164 0.00148864 0.00138921 0.00144164 0.00138529 0.00143781 0.00144164 0.00148864 0.00143781 0.00148471 0.00149124 0.00152831 0.00148864 0.00152541 0.00152831 0.0015532 0.00152541 0.00154975 0.00148864 0.00152541 0.00148471 0.00152109 0.00152541 0.00154975 0.00152109 0.00154469 0.00123697 0.00125693 0.00123186 0.00125144 0.00125693 0.00128957 0.00125144 0.00128392 0.00123186 0.00125144 0.00122542 0.00124444 0.00125144 0.00128392 0.00124444 0.00127661 0.00128957 0.00133376 0.00128392 0.00132815 0.00133376 0.00138529 0.00132815 0.00137981 0.00128392 0.00132815 0.00127661 0.00132077 0.00132815 0.00137981 0.00132077 0.00137248 0.00122542 0.00124444 0.00121758 0.00123579 0.00124444 0.00127661 0.00123579 0.00126744 0.00121758 0.00123579 0.00120829 0.00122538 0.00123579 0.00126744 0.00122538 0.00125624 0.00127661 0.00132077 0.00126744 0.00131136 0.00132077 0.00137248 0.00131136 0.00136299 0.00126744 0.00131136 0.00125624 0.00129967 0.00131136 0.00136299 0.00129967 0.00135102 0.00138529 0.00143781 0.00137981 0.0014324 0.00143781 0.00148471 0.0014324 0.00147918 0.00137981 0.0014324 0.00137248 0.0014251 0.0014324 0.00147918 0.0014251 0.00147171 0.00148471 0.00152109 0.00147918 0.00151508 0.00152109 0.00154469 0.00151508 0.0015378 0.00147918 0.00151508 0.00147171 0.00150709 0.00151508 0.0015378 0.00150709 0.00152884 0.00137248 0.0014251 0.00136299 0.00141554 0.0014251 0.00147171 0.00141554 0.00146193 0.00136299 0.00141554 0.00135102 0.00140336 0.00141554 0.00146193 0.00140336 0.00144948 0.00147171 0.00150709 0.00146193 0.00149678 0.00150709 0.00152884 0.00149678 0.00151755 0.00146193 0.00149678 0.00144948 0.00148382 0.00149678 0.00151755 0.00148382 0.00150369 0.00155585 0.00156926 0.00155519 0.00156845 0.00156926 0.00157178 0.00156845 0.00157082 0.00155519 0.00156845 0.0015532 0.00156601 0.00156845 0.00157082 0.00156601 0.00156793 0.00157178 0.00156434 0.00157082 0.00156329 0.00156434 0.0015478 0.00156329 0.00154672 0.00157082 0.00156329 0.00156793 0.00156009 0.00156329 0.00154672 0.00156009 0.00154345 0.0015532 0.00156601 0.00154975 0.00156183 0.00156601 0.00156793 0.00156183 0.00156302 0.00154975 0.00156183 0.00154469 0.00155578 0.00156183 0.00156302 0.00155578 0.00155597 0.00156793 0.00156009 0.00156302 0.00155468 0.00156009 0.00154345 0.00155468 0.0015379 0.00156302 0.00155468 0.00155597 0.00154691 0.00155468 0.0015379 0.00154691 0.00152994 0.0015478 0.00152425 0.00154672 0.00152322 0.00152425 0.00149859 0.00152322 0.00149765 0.00154672 0.00152322 0.00154345 0.0015201 0.00152322 0.00149765 0.0015201 0.00149481 0.00149859 0.00147821 0.00149765 0.00147736 0.00147821 0.00147016 0.00147736 0.00146936 0.00149765 0.00147736 0.00149481 0.00147478 0.00147736 0.00146936 0.00147478 0.00146691 0.00154345 0.0015201 0.0015379 0.00151479 0.0015201 0.00149481 0.00151479 0.00148995 0.0015379 0.00151479 0.00152994 0.00150715 0.00151479 0.00148995 0.00150715 0.00148292 0.00149481 0.00147478 0.00148995 0.00147035 0.00147478 0.00146691 0.00147035 0.00146269 0.00148995 0.00147035 0.00148292 0.00146392 0.00147035 0.00146269 0.00146392 0.00145654 0.00154469 0.00155578 0.0015378 0.00154769 0.00155578 0.00155597 0.00154769 0.00154664 0.0015378 0.00154769 0.00152884 0.00153738 0.00154769 0.00154664 0.00153738 0.00153491 0.00155597 0.00154691 0.00154664 0.00153668 0.00154691 0.00152994 0.00153668 0.00151945 0.00154664 0.00153668 0.00153491 0.00152391 0.00153668 0.00151945 0.00152391 0.00150634 0.00152884 0.00153738 0.00151755 0.0015247 0.00153738 0.00153491 0.0015247 0.0015207 0.00151755 0.0015247 0.00150369 0.0015095 0.0015247 0.0015207 0.0015095 0.00150399 0.00153491 0.00152391 0.0015207 0.00150853 0.00152391 0.00150634 0.00150853 0.0014906 0.0015207 0.00150853 0.00150399 0.00149066 0.00150853 0.0014906 0.00149066 0.00147234 0.00152994 0.00150715 0.00151945 0.00149704 0.00150715 0.00148292 0.00149704 0.00147357 0.00151945 0.00149704 0.00150634 0.00148436 0.00149704 0.00147357 0.00148436 0.00146178 0.00148292 0.00146392 0.00147357 0.0014553 0.00146392 0.00145654 0.0014553 0.00144826 0.00147357 0.0014553 0.00146178 0.00144437 0.0014553 0.00144826 0.00144437 0.0014377 0.00150634 0.00148436 0.0014906 0.0014691 0.00148436 0.00146178 0.0014691 0.00144753 0.0014906 0.0014691 0.00147234 0.00145138 0.0014691 0.00144753 0.00145138 0.0014309 0.00146178 0.00144437 0.00144753 0.00143108 0.00144437 0.0014377 0.00143108 0.0014248 0.00144753 0.00143108 0.0014309 0.00141548 0.00143108 0.0014248 0.00141548 0.00140961 0.00120829 0.00122538 0.00119751 0.00121313 0.00122538 0.00125624 0.00121313 0.00124286 0.00119751 0.00121313 0.00118521 0.001199 0.00121313 0.00124286 0.001199 0.00122722 0.00125624 0.00129967 0.00124286 0.0012855 0.00129967 0.00135102 0.0012855 0.00133629 0.00124286 0.0012855 0.00122722 0.00126869 0.0012855 0.00133629 0.00126869 0.00131858 0.00118521 0.001199 0.00117142 0.001183 0.001199 0.00122722 0.001183 0.00120931 0.00117142 0.001183 0.00115621 0.0011652 0.001183 0.00120931 0.0011652 0.00118917 0.00122722 0.00126869 0.00120931 0.00124917 0.00126869 0.00131858 0.00124917 0.00129774 0.00120931 0.00124917 0.00118917 0.00122698 0.00124917 0.00129774 0.00122698 0.00127377 0.00135102 0.00140336 0.00133629 0.00138822 0.00140336 0.00144948 0.00138822 0.00143398 0.00133629 0.00138822 0.00131858 0.00136982 0.00138822 0.00143398 0.00136982 0.00141514 0.00144948 0.00148382 0.00143398 0.00146789 0.00148382 0.00150369 0.00146789 0.00148702 0.00143398 0.00146789 0.00141514 0.00144871 0.00146789 0.00148702 0.00144871 0.00146738 0.00131858 0.00136982 0.00129774 0.001348 0.00136982 0.00141514 0.001348 0.00139273 0.00129774 0.001348 0.00127377 0.00132266 0.001348 0.00139273 0.00132266 0.00136665 0.00141514 0.00144871 0.00139273 0.00142608 0.00144871 0.00146738 0.00142608 0.00144465 0.00139273 0.00142608 0.00136665 0.00139993 0.00142608 0.00144465 0.00139993 0.00141882 0.00115621 0.0011652 0.00113967 0.00114574 0.0011652 0.00118917 0.00114574 0.00116698 0.00113967 0.00114574 0.00112192 0.00112482 0.00114574 0.00116698 0.00112482 0.00114297 0.00118917 0.00122698 0.00116698 0.00120226 0.00122698 0.00127377 0.00120226 0.00124679 0.00116698 0.00120226 0.00114297 0.00117528 0.00120226 0.00124679 0.00117528 0.00121706 0.00112192 0.00112482 0.00110312 0.00110266 0.00112482 0.00114297 0.00110266 0.00111746 0.00110312 0.00110266 0.00108342 0.00107957 0.00110266 0.00111746 0.00107957 0.00109084 0.00114297 0.00117528 0.00111746 0.00114642 0.00117528 0.00121706 0.00114642 0.001185 0.00111746 0.00114642 0.00109084 0.00111615 0.00114642 0.001185 0.00111615 0.00115116 0.00127377 0.00132266 0.00124679 0.00129391 0.00132266 0.00136665 0.00129391 0.00133697 0.00124679 0.00129391 0.00121706 0.00126199 0.00129391 0.00133697 0.00126199 0.00130391 0.00136665 0.00139993 0.00133697 0.0013703 0.00139993 0.00141882 0.0013703 0.00138997 0.00133697 0.0013703 0.00130391 0.0013374 0.0013703 0.00138997 0.0013374 0.00135834 0.00121706 0.00126199 0.001185 0.00122735 0.00126199 0.00130391 0.00122735 0.00126789 0.001185 0.00122735 0.00115116 0.00119055 0.00122735 0.00126789 0.00119055 0.0012295 0.00130391 0.0013374 0.00126789 0.00130163 0.0013374 0.00135834 0.00130163 0.00132427 0.00126789 0.00130163 0.0012295 0.00126352 0.00130163 0.00132427 0.00126352 0.00128825 0.00150369 0.0015095 0.00148702 0.00149169 0.0015095 0.00150399 0.00149169 0.00148484 0.00148702 0.00149169 0.00146738 0.00147126 0.00149169 0.00148484 0.00147126 0.00146336 0.00150399 0.00149066 0.00148484 0.00147041 0.00149066 0.00147234 0.00147041 0.0014518 0.00148484 0.00147041 0.00146336 0.00144812 0.00147041 0.0014518 0.00144812 0.00142934 0.00146738 0.0