# vtk DataFile Version 3.0
#This file was generated by the deal.II library on 2023/3/1 at 4:17:00
ASCII
DATASET UNSTRUCTURED_GRID

FIELD FieldData 2
CYCLE 1 1 int
35
TIME 1 1 double
0.07
POINTS 3580 double
2 0 0
1.41421 1.22465e-16 1.41421
2.29289 0.707107 0
1.62132 0.707107 1.62132
2.29289 -0.707107 0
1.62132 -0.707107 1.62132
2 0 0
1.41421 1.22465e-16 1.41421
0 0 -2
1.41421 1.22465e-16 -1.41421
-4.21198e-16 0.707107 -2.29289
1.62132 0.707107 -1.62132
1.41421 1.22465e-16 -1.41421
2 0 0
1.62132 0.707107 -1.62132
2.29289 0.707107 0
-4.21198e-16 0.707107 -2.29289
1.62132 0.707107 -1.62132
0 1 -3
2.12132 1 -2.12132
1.62132 0.707107 -1.62132
2.29289 0.707107 0
2.12132 1 -2.12132
3 1 0
0 -1 -3
2.12132 -1 -2.12132
-4.21198e-16 -0.707107 -2.29289
1.62132 -0.707107 -1.62132
2.12132 -1 -2.12132
3 -1 0
1.62132 -0.707107 -1.62132
2.29289 -0.707107 0
-4.21198e-16 -0.707107 -2.29289
1.62132 -0.707107 -1.62132
0 0 -2
1.41421 1.22465e-16 -1.41421
1.62132 -0.707107 -1.62132
2.29289 -0.707107 0
1.41421 1.22465e-16 -1.41421
2 0 0
0 0 -4
2.82843 0 -2.82843
-6.80984e-16 -0.707107 -3.70711
2.62132 -0.707107 -2.62132
2.82843 0 -2.82843
4 0 0
2.62132 -0.707107 -2.62132
3.70711 -0.707107 0
-6.80984e-16 -0.707107 -3.70711
2.62132 -0.707107 -2.62132
0 -1 -3
2.12132 -1 -2.12132
2.62132 -0.707107 -2.62132
3.70711 -0.707107 0
2.12132 -1 -2.12132
3 -1 0
0 1 -3
2.12132 1 -2.12132
-6.80984e-16 0.707107 -3.70711
2.62132 0.707107 -2.62132
2.12132 1 -2.12132
3 1 0
2.62132 0.707107 -2.62132
3.70711 0.707107 0
-6.80984e-16 0.707107 -3.70711
2.62132 0.707107 -2.62132
0 0 -4
2.82843 0 -2.82843
2.62132 0.707107 -2.62132
3.70711 0.707107 0
2.82843 0 -2.82843
4 0 0
2.29289 0.707107 0
2.11836 0.707107 0.877452
2.61732 0.92388 0
2.41809 0.92388 1.0016
2.11836 0.707107 0.877452
1.62132 0.707107 1.62132
2.41809 0.92388 1.0016
1.85072 0.92388 1.85072
2.61732 0.92388 0
2.41809 0.92388 1.0016
3 1 0
2.77164 1 1.14805
2.41809 0.92388 1.0016
1.85072 0.92388 1.85072
2.77164 1 1.14805
2.12132 1 2.12132
3 -1 0
2.77164 -1 1.14805
2.61732 -0.92388 0
2.41809 -0.92388 1.0016
2.77164 -1 1.14805
2.12132 -1 2.12132
2.41809 -0.92388 1.0016
1.85072 -0.92388 1.85072
2.61732 -0.92388 0
2.41809 -0.92388 1.0016
2.29289 -0.707107 0
2.11836 -0.707107 0.877452
2.41809 -0.92388 1.0016
1.85072 -0.92388 1.85072
2.11836 -0.707107 0.877452
1.62132 -0.707107 1.62132
-1.62132 0.707107 -1.62132
-0.877452 0.707107 -2.11836
-1.85072 0.92388 -1.85072
-1.0016 0.92388 -2.41809
-0.877452 0.707107 -2.11836
-4.21198e-16 0.707107 -2.29289
-1.0016 0.92388 -2.41809
-4.80793e-16 0.92388 -2.61732
-1.85072 0.92388 -1.85072
-1.0016 0.92388 -2.41809
-2.12132 1 -2.12132
-1.14805 1 -2.77164
-1.0016 0.92388 -2.41809
-4.80793e-16 0.92388 -2.61732
-1.14805 1 -2.77164
0 1 -3
3.70711 -0.707107 0
3.42492 -0.707107 1.41865
3.38268 -0.92388 0
3.12519 -0.92388 1.2945
3.38268 -0.92388 0
3.12519 -0.92388 1.2945
3 -1 0
2.77164 -1 1.14805
3.12519 -0.92388 1.2945
2.39192 -0.92388 2.39192
2.77164 -1 1.14805
2.12132 -1 2.12132
3 1 0
2.77164 1 1.14805
3.38268 0.92388 0
3.12519 0.92388 1.2945
2.77164 1 1.14805
2.12132 1 2.12132
3.12519 0.92388 1.2945
2.39192 0.92388 2.39192
3.38268 0.92388 0
3.12519 0.92388 1.2945
3.70711 0.707107 0
3.42492 0.707107 1.41865
-2.12132 -1 -2.12132
-1.14805 -1 -2.77164
-1.85072 -0.92388 -1.85072
-1.0016 -0.92388 -2.41809
-1.14805 -1 -2.77164
0 -1 -3
-1.0016 -0.92388 -2.41809
-4.80793e-16 -0.92388 -2.61732
-1.85072 -0.92388 -1.85072
-1.0016 -0.92388 -2.41809
-1.62132 -0.707107 -1.62132
-0.877452 -0.707107 -2.11836
-1.0016 -0.92388 -2.41809
-4.80793e-16 -0.92388 -2.61732
-0.877452 -0.707107 -2.11836
-4.21198e-16 -0.707107 -2.29289
1.62132 0.707107 1.62132
0.877452 0.707107 2.11836
1.85072 0.92388 1.85072
1.0016 0.92388 2.41809
1.85072 0.92388 1.85072
1.0016 0.92388 2.41809
2.12132 1 2.12132
1.14805 1 2.77164
-4 0 0
-3.69552 0 -1.53073
-3.92388 -0.382683 4.80537e-16
-3.62519 -0.382683 -1.5016
-3.69552 0 -1.53073
-2.82843 0 -2.82843
-3.62519 -0.382683 -1.5016
-2.7746 -0.382683 -2.7746
-3.92388 -0.382683 4.80537e-16
-3.62519 -0.382683 -1.5016
-3.70711 -0.707107 4.5399e-16
-3.42492 -0.707107 -1.41865
-3.62519 -0.382683 -1.5016
-2.7746 -0.382683 -2.7746
-3.42492 -0.707107 -1.41865
-2.62132 -0.707107 -2.62132
2.12132 -1 2.12132
1.14805 -1 2.77164
1.85072 -0.92388 1.85072
1.0016 -0.92388 2.41809
1.85072 -0.92388 1.85072
1.0016 -0.92388 2.41809
1.62132 -0.707107 1.62132
0.877452 -0.707107 2.11836
-0.765367 1.22465e-16 -1.84776
0 0 -2
-0.794497 0.382683 -1.91809
-3.81377e-16 0.382683 -2.07612
-0.794497 0.382683 -1.91809
-3.81377e-16 0.382683 -2.07612
-0.877452 0.707107 -2.11836
-4.21198e-16 0.707107 -2.29289
-0.877452 -0.707107 -2.11836
-4.21198e-16 -0.707107 -2.29289
-0.794497 -0.382683 -1.91809
-3.81377e-16 -0.382683 -2.07612
-0.794497 -0.382683 -1.91809
-3.81377e-16 -0.382683 -2.07612
-0.765367 1.22465e-16 -1.84776
0 0 -2
-2.82843 0 -2.82843
-1.53073 0 -3.69552
-2.7746 -0.382683 -2.7746
-1.5016 -0.382683 -3.62519
-1.53073 0 -3.69552
0 0 -4
-1.5016 -0.382683 -3.62519
-7.20805e-16 -0.382683 -3.92388
-2.7746 -0.382683 -2.7746
-1.5016 -0.382683 -3.62519
-2.62132 -0.707107 -2.62132
-1.41865 -0.707107 -3.42492
-1.5016 -0.382683 -3.62519
-7.20805e-16 -0.382683 -3.92388
-1.41865 -0.707107 -3.42492
-6.80984e-16 -0.707107 -3.70711
4 0 0
3.69552 0 1.53073
3.92388 -0.382683 0
3.62519 -0.382683 1.5016
3.92388 -0.382683 0
3.62519 -0.382683 1.5016
3.70711 -0.707107 0
3.42492 -0.707107 1.41865
2.62132 -0.707107 2.62132
1.41865 -0.707107 3.42492
2.39192 -0.92388 2.39192
1.2945 -0.92388 3.12519
2.39192 -0.92388 2.39192
1.2945 -0.92388 3.12519
2.12132 -1 2.12132
1.14805 -1 2.77164
2.12132 1 2.12132
1.14805 1 2.77164
2.39192 0.92388 2.39192
1.2945 0.92388 3.12519
2.39192 0.92388 2.39192
1.2945 0.92388 3.12519
2.62132 0.707107 2.62132
1.41865 0.707107 3.42492
3.70711 0.707107 0
3.42492 0.707107 1.41865
3.92388 0.382683 0
3.62519 0.382683 1.5016
3.92388 0.382683 0
3.62519 0.382683 1.5016
4 0 0
3.69552 0 1.53073
-2.62132 -0.707107 -2.62132
-1.41865 -0.707107 -3.42492
-2.39192 -0.92388 -2.39192
-1.2945 -0.92388 -3.12519
-1.41865 -0.707107 -3.42492
-6.80984e-16 -0.707107 -3.70711
-1.2945 -0.92388 -3.12519
-6.21389e-16 -0.92388 -3.38268
-2.39192 -0.92388 -2.39192
-1.2945 -0.92388 -3.12519
-2.12132 -1 -2.12132
-1.14805 -1 -2.77164
-1.2945 -0.92388 -3.12519
-6.21389e-16 -0.92388 -3.38268
-1.14805 -1 -2.77164
0 -1 -3
-2.12132 1 -2.12132
-1.14805 1 -2.77164
-2.39192 0.92388 -2.39192
-1.2945 0.92388 -3.12519
-1.14805 1 -2.77164
0 1 -3
-1.2945 0.92388 -3.12519
-6.21389e-16 0.92388 -3.38268
-2.39192 0.92388 -2.39192
-1.2945 0.92388 -3.12519
-2.62132 0.707107 -2.62132
-1.41865 0.707107 -3.42492
-1.2945 0.92388 -3.12519
-6.21389e-16 0.92388 -3.38268
-1.41865 0.707107 -3.42492
-6.80984e-16 0.707107 -3.70711
-3.70711 0.707107 4.5399e-16
-3.42492 0.707107 -1.41865
-3.92388 0.382683 4.80537e-16
-3.62519 0.382683 -1.5016
-3.42492 0.707107 -1.41865
-2.62132 0.707107 -2.62132
-3.62519 0.382683 -1.5016
-2.7746 0.382683 -2.7746
-3.92388 0.382683 4.80537e-16
-3.62519 0.382683 -1.5016
-4 0 0
-3.69552 0 -1.53073
-3.62519 0.382683 -1.5016
-2.7746 0.382683 -2.7746
-3.69552 0 -1.53073
-2.82843 0 -2.82843
-2.62132 0.707107 -2.62132
-1.41865 0.707107 -3.42492
-2.7746 0.382683 -2.7746
-1.5016 0.382683 -3.62519
-1.41865 0.707107 -3.42492
-6.80984e-16 0.707107 -3.70711
-1.5016 0.382683 -3.62519
-7.20805e-16 0.382683 -3.92388
-2.7746 0.382683 -2.7746
-1.5016 0.382683 -3.62519
-2.82843 0 -2.82843
-1.53073 0 -3.69552
-1.5016 0.382683 -3.62519
-7.20805e-16 0.382683 -3.92388
-1.53073 0 -3.69552
0 0 -4
1.41421 1.22465e-16 1.41421
0.765367 1.22465e-16 1.84776
1.46804 0.382683 1.46804
0.794497 0.382683 1.91809
0.765367 1.22465e-16 1.84776
0 0 2
0.794497 0.382683 1.91809
1.27126e-16 0.382683 2.07612
1.46804 0.382683 1.46804
0.794497 0.382683 1.91809
1.62132 0.707107 1.62132
0.877452 0.707107 2.11836
1.62132 -0.707107 1.62132
0.877452 -0.707107 2.11836
1.46804 -0.382683 1.46804
0.794497 -0.382683 1.91809
1.46804 -0.382683 1.46804
0.794497 -0.382683 1.91809
1.41421 1.22465e-16 1.41421
0.765367 1.22465e-16 1.84776
0.794497 -0.382683 1.91809
1.27126e-16 -0.382683 2.07612
0.765367 1.22465e-16 1.84776
0 0 2
2.7746 -0.382683 2.7746
1.5016 -0.382683 3.62519
2.62132 -0.707107 2.62132
1.41865 -0.707107 3.42492
0 0 2
-0.765367 1.22465e-16 1.84776
1.27126e-16 0.382683 2.07612
-0.794497 0.382683 1.91809
-0.765367 1.22465e-16 1.84776
-1.41421 1.22465e-16 1.41421
-0.794497 0.382683 1.91809
-1.46804 0.382683 1.46804
1.27126e-16 0.382683 2.07612
-0.794497 0.382683 1.91809
1.40399e-16 0.707107 2.29289
-0.877452 0.707107 2.11836
-0.794497 0.382683 1.91809
-1.46804 0.382683 1.46804
-0.877452 0.707107 2.11836
-1.62132 0.707107 1.62132
-0.877452 0.707107 2.11836
-1.62132 0.707107 1.62132
-1.0016 0.92388 2.41809
-1.85072 0.92388 1.85072
-1.0016 0.92388 2.41809
-1.85072 0.92388 1.85072
-1.14805 1 2.77164
-2.12132 1 2.12132
-1.14805 -1 2.77164
-2.12132 -1 2.12132
-1.0016 -0.92388 2.41809
-1.85072 -0.92388 1.85072
-1.0016 -0.92388 2.41809
-1.85072 -0.92388 1.85072
-0.877452 -0.707107 2.11836
-1.62132 -0.707107 1.62132
1.40399e-16 -0.707107 2.29289
-0.877452 -0.707107 2.11836
1.27126e-16 -0.382683 2.07612
-0.794497 -0.382683 1.91809
-0.877452 -0.707107 2.11836
-1.62132 -0.707107 1.62132
-0.794497 -0.382683 1.91809
-1.46804 -0.382683 1.46804
1.27126e-16 -0.382683 2.07612
-0.794497 -0.382683 1.91809
0 0 2
-0.765367 1.22465e-16 1.84776
-0.794497 -0.382683 1.91809
-1.46804 -0.382683 1.46804
-0.765367 1.22465e-16 1.84776
-1.41421 1.22465e-16 1.41421
-2.82843 0 2.82843
-3.69552 0 1.53073
-2.7746 -0.382683 2.7746
-3.62519 -0.382683 1.5016
-3.69552 0 1.53073
-4 0 0
-3.62519 -0.382683 1.5016
-3.92388 -0.382683 4.80537e-16
-2.7746 -0.382683 2.7746
-3.62519 -0.382683 1.5016
-2.62132 -0.707107 2.62132
-3.42492 -0.707107 1.41865
-3.62519 -0.382683 1.5016
-3.92388 -0.382683 4.80537e-16
-3.42492 -0.707107 1.41865
-3.70711 -0.707107 4.5399e-16
-2.62132 0.707107 2.62132
-3.42492 0.707107 1.41865
-2.7746 0.382683 2.7746
-3.62519 0.382683 1.5016
-3.42492 0.707107 1.41865
-3.70711 0.707107 4.5399e-16
[...]
POINT_DATA 3580
SCALARS U double 1
LOOKUP_TABLE default
0.000807244 0.00190136 0.000749532 0.00148232 0.000749527 0.00148232 0.000807244 0.00190136 -0.000216569 6.10305e-05 -0.000173178 5.54772e-05 6.10305e-05 0.000807244 5.54772e-05 0.000749532 -0.000173178 5.54772e-05 0.000142643 -3.93897e-05 5.54772e-05 0.000749532 -3.93897e-05 0.000502513 0.000142645 -3.93978e-05 -0.000173178 5.54786e-05 -3.93978e-05 0.000502538 5.54786e-05 0.000749527 -0.000173178 5.54786e-05 -0.000216569 6.10305e-05 5.54786e-05 0.000749527 6.10305e-05 0.000807244 -0.000233551 8.01966e-05 -8.79155e-05 3.26912e-05 8.01966e-05 3.97551e-05 3.26912e-05 0.000254004 -8.79155e-05 3.26912e-05 0.000142645 -3.93978e-05 3.26912e-05 0.000254004 -3.93978e-05 0.000502538 0.000142643 -3.93897e-05 -8.7919e-05 3.2702e-05 -3.93897e-05 0.000502513 3.2702e-05 0.000253997 -8.7919e-05 3.2702e-05 -0.000233551 8.01966e-05 3.2702e-05 0.000253997 8.01966e-05 3.97551e-05 0.000749532 0.00111593 0.000626023 0.000868313 0.00111593 0.00148232 0.000868313 0.00146388 0.000626023 0.000868313 0.000502513 0.000647639 0.000868313 0.00146388 0.000647639 0.00155224 0.000502538 0.000647647 0.000626033 0.000868298 0.000647647 0.00155183 0.000868298 0.00146393 0.000626033 0.000868298 0.000749527 0.00111592 0.000868298 0.00146393 0.00111592 0.00148232 0.00147295 0.00171791 0.00212836 0.000875997 0.00171791 -0.000173178 0.000875997 -1.52675e-05 0.00212836 0.000875997 0.00200759 0.000142417 0.000875997 -1.52675e-05 0.000142417 0.000142643 0.000254004 0.000363281 0.000378271 0.00055377 0.000378271 0.00055377 0.000502538 0.000647647 0.00055377 0.00137077 0.000647647 0.00155183 0.000502513 0.000647639 0.000378255 0.000554662 0.000647639 0.00155224 0.000554662 0.00136811 0.000378255 0.000554662 0.000253997 0.000363687 0.00200759 0.000142417 0.00212836 0.000875997 0.000142417 0.000142645 0.000875997 -1.52664e-05 0.00212836 0.000875997 0.00147295 0.00171791 0.000875997 -1.52664e-05 0.00171791 -0.000173178 0.00148232 0.00161103 0.00146388 0.00107222 0.00146388 0.00107222 0.00155224 0.000748772 -0.000158531 1.77996e-06 -0.000186792 -0.000100667 1.77996e-06 0.00189302 -0.000100667 0.00165351 -0.000186792 -0.000100667 -0.000171935 -0.00020878 -0.000100667 0.00165351 -0.00020878 0.00194018 0.00155183 0.000748429 0.00146393 0.00107226 0.00146393 0.00107226 0.00148232 0.00161103 0.00173179 -0.000216569 0.00171096 -0.000194873 0.00171096 -0.000194873 0.00171791 -0.000173178 0.00171791 -0.000173178 0.00171096 -0.000194873 0.00171096 -0.000194873 0.00173179 -0.000216569 0.00189302 0.000936243 0.00165351 0.000886964 0.000936243 -0.000233551 0.000886964 -0.000160733 0.00165351 0.000886964 0.00194018 0.000661783 0.000886964 -0.000160733 0.000661783 -8.79155e-05 3.97551e-05 4.49013e-05 0.000146879 0.000138856 0.000146879 0.000138856 0.000254004 0.000363281 0.00137856 0.000823831 0.00137077 0.000841673 0.00137077 0.000841673 0.00155183 0.000748429 0.00155224 0.000748772 0.00136811 0.000839438 0.00136811 0.000839438 0.00139758 0.000835288 0.000253997 0.000363687 0.000146876 0.000138613 0.000146876 0.000138613 3.97551e-05 4.49013e-05 0.00194018 0.000661783 0.0024227 0.000380178 0.000661783 -8.79155e-05 0.000380178 2.73649e-05 0.0024227 0.000380178 0.00200759 0.000142417 0.000380178 2.73649e-05 0.000142417 0.000142645 0.00200759 0.000142417 0.0024227 0.000380178 0.000142417 0.000142643 0.000380178 2.73618e-05 0.0024227 0.000380178 0.00194018 0.000661783 0.000380178 2.73618e-05 0.000661783 -8.7919e-05 -0.000171934 -0.00020878 -0.000186792 -0.000100667 -0.00020878 0.00194018 -0.000100667 0.00165351 -0.000186792 -0.000100667 -0.000158531 1.77996e-06 -0.000100667 0.00165351 1.77996e-06 0.00189302 0.00194018 0.000661783 0.00165351 0.000886964 0.000661783 -8.7919e-05 0.000886964 -0.000160735 0.00165351 0.000886964 0.00189302 0.000936243 0.000886964 -0.000160735 0.000936243 -0.000233551 0.00190136 0.00191132 0.00169184 0.00187076 0.00191132 0.00194687 0.00187076 0.00196762 0.00169184 0.00187076 0.00148232 0.00161103 0.00148232 0.00161103 0.00169184 0.00187076 0.00169184 0.00187076 0.00190136 0.00191132 0.00187076 0.00196762 0.00191132 0.00194687 0.00172622 0.000589357 0.00137856 0.000823831 0.00194687 0.0016306 0.00196762 0.00165468 0.0016306 0.000317264 0.00165468 0.000258893 0.00196762 0.00165468 0.00197083 0.00155459 0.00165468 0.000258893 0.00155459 0.000284818 0.00155459 0.000284818 0.00109496 0.000672469 0.00109496 0.000672469 0.000585865 0.0011671 0.000586177 0.00116716 0.00109496 0.000672454 0.00109496 0.000672454 0.00155459 0.000284818 0.00197083 0.00155459 0.00196762 0.00165468 0.00155459 0.000284818 0.00165468 0.000258894 0.00196762 0.00165468 0.00194687 0.0016306 0.00165468 0.000258894 0.0016306 0.000317264 0.00156701 0.00066113 0.00159787 0.000682513 0.00066113 -0.000158531 0.000682513 -0.000186792 0.00159787 0.000682513 0.00160779 0.00067999 0.000682513 -0.000186792 0.00067999 -0.000171935 0.0016078 0.000679985 0.00159785 0.000682512 0.000679985 -0.000171934 0.000682512 -0.000186792 0.00159785 0.000682512 0.00156701 0.00066113 0.000682512 -0.000186792 0.00066113 -0.000158531 0.000363281 0.000825393 0.000458525 0.000900721 0.000825393 0.00137856 0.000900721 0.00137467 0.000458525 0.000900721 0.00055377 0.000962272 0.000900721 0.00137467 0.000962272 0.00137077 0.000554662 0.000961385 0.000459174 0.000898905 0.000961385 0.00136811 0.000898905 0.00138284 0.000459174 0.000898905 0.000363687 0.000822009 0.000898905 0.00138284 0.000822009 0.00139758 0.000969457 0.000961417 0.0009256 0.000919691 0.000961417 0.00173179 0.000919691 0.00172137 0.0009256 0.000919691 0.000792874 0.000867721 0.000919691 0.00172137 0.000867721 0.00171096 0.000792874 0.000867721 0.000862734 0.00074737 0.000867721 0.00171096 0.00074737 0.00171443 0.000862734 0.00074737 0.00147295 0.00159543 0.00074737 0.00171443 0.00159543 0.00171791 0.00147295 0.00159543 0.000862734 0.00074737 0.00159543 0.00171791 0.00074737 0.00171443 0.000862734 0.00074737 0.000792874 0.000867721 0.00074737 0.00171443 0.000867721 0.00171096 0.000792874 0.000867721 0.0009256 0.000919691 0.000867721 0.00171096 0.000919691 0.00172137 0.0009256 0.000919691 0.000969457 0.000961417 0.000919691 0.00172137 0.000961417 0.00173179 0.00187076 0.00191919 0.0017409 0.00188274 0.00191919 0.00196762 0.00188274 0.00196922 0.0017409 0.00188274 0.00161103 0.00179093 0.00188274 0.00196922 0.00179093 0.00197083 0.00161103 0.00179092 0.00174089 0.00188274 0.00179092 0.00197083 0.00188274 0.00196923 0.00174089 0.00188274 0.00187076 0.00191919 0.00188274 0.00196923 0.00191919 0.00196762 0.00140847 0.00134285 0.00186581 0.00159989 0.00134285 0.000792874 0.00159989 0.000862734 0.00186581 0.00159989 0.00210778 0.00163706 0.00159989 0.000862734 0.00163706 0.00147295 0.00210778 0.00163706 0.00214665 0.00158614 0.00163706 0.00147295 0.00158614 0.00180066 0.00214665 0.00158614 0.0021575 0.00148675 0.00158614 0.00180066 0.00148675 0.00212836 0.00090607 0.00156701 0.000906702 0.00158244 0.000906702 0.00158244 0.000899564 0.00159787 0.000352205 0.000899564 0.000356191 0.000910845 0.000899564 0.00159787 0.000910845 0.00160283 0.000356191 0.000910845 0.000366327 0.00090507 0.000910845 0.00160283 0.00090507 0.00160779 0.000366327 0.00090507 0.000381683 0.000889096 0.00090507 0.00160779 0.000889096 0.00154758 0.000889096 0.00154758 0.000861892 0.00146975 0.0021575 0.00148675 0.00220606 0.00150392 0.00148675 0.00212836 0.00150392 0.00206797 0.00220606 0.00150392 0.00200005 0.00140703 0.00150392 0.00206797 0.00140703 0.00200759 0.00200005 0.00140703 0.00220606 0.00150392 0.00140703 0.00200759 0.00150392 0.00206797 0.00220606 0.00150392 0.0021575 0.00148675 0.00150392 0.00206797 0.00148675 0.00212836 0.0021575 0.00148675 0.00214665 0.00158614 0.00148675 0.00212836 0.00158614 0.00180066 0.00214665 0.00158614 0.00210778 0.00163706 0.00158614 0.00180066 0.00163706 0.00147295 0.00210778 0.00163706 0.00186581 0.00159989 0.00163706 0.00147295 0.00159989 0.000862734 0.00186581 0.00159989 0.00140847 0.00134285 0.00159989 0.000862734 0.00134285 0.000792874 0.000413251 0.000861892 0.000469226 0.000844517 0.000861892 0.00146975 0.000844517 0.00135343 0.000469226 0.000844517 0.000586177 0.000876666 0.000844517 0.00135343 0.000876666 0.00116716 0.000585865 0.000876484 0.000467574 0.000845427 0.000876484 0.0011671 0.000845427 0.00135325 0.000845427 0.00135325 0.000881479 0.00146496 0.000881479 0.00146496 0.000888169 0.00154788 0.000381335 0.000888169 0.000366325 0.000904873 0.000888169 0.00154788 0.000904873 0.0016078 0.000366325 0.000904873 0.000356111 0.000910904 0.000904873 0.0016078 0.000910904 0.00160282 0.000356111 0.000910904 0.000351967 0.000899604 0.000910904 0.00160282 0.000899604 0.00159785 0.000899604 0.00159785 0.000906761 0.00158243 0.000906761 0.00158243 0.00090607 0.00156701 -0.000171935 -0.000190358 -9.88757e-05 3.81548e-05 -0.000190358 -0.00020878 3.81548e-05 4.44047e-05 -9.88757e-05 3.81548e-05 -3.5381e-05 0.000547032 3.81548e-05 4.44047e-05 0.000547032 0.000451684 0.000362981 0.000887697 0.000632556 0.00119828 0.000887697 0.00186788 0.00119828 0.00179717 0.000632556 0.00119828 0.000362981 0.000887697 0.00119828 0.00179717 0.000887697 0.00186788 -0.00020878 0.0008657 4.44047e-05 0.000631378 0.0008657 0.00194018 0.000631378 0.00218144 4.44047e-05 0.000631378 0.000451684 0.000650618 0.000631378 0.00218144 0.000650618 0.0024227 0.000451684 0.000650618 0.00123772 0.00103284 0.000650618 0.0024227 0.00103284 0.00221514 0.00123772 0.00103284 0.00200005 0.00140703 0.00103284 0.00221514 0.00140703 0.00200759 0.00200005 0.00140703 0.00123772 0.00103284 0.00140703 0.00200759 0.00103284 0.00221514 0.00123772 0.00103284 0.000451684 0.000650619 0.00103284 0.00221514 0.000650619 0.0024227 0.00161103 0.00179093 0.00134162 0.00162272 0.00179093 0.00197083 0.00162272 0.00194981 0.00134162 0.00162272 0.00107222 0.00136762 0.00162272 0.00194981 0.00136762 0.00193945 -3.5381e-05 0.000547032 -9.88746e-05 3.81541e-05 0.000547032 0.000451684 3.81541e-05 4.44049e-05 -9.88746e-05 3.81541e-05 -0.000171934 -0.000190357 3.81541e-05 4.44049e-05 -0.000190357 -0.00020878 0.00107222 0.00136762 0.000910495 0.00109651 0.00136762 0.00193945 0.00109651 0.00191307 0.000910495 0.00109651 0.000748772 0.000898529 0.00109651 0.00191307 0.000898529 0.00190531 0.000317264 0.000248695 0.000288079 0.000262274 0.000248695 0.000259163 0.000262274 0.000362981 0.000288079 0.000262274 0.000258893 0.000271557 0.000262274 0.000362981 0.000271557 0.000632556 0.000258893 0.000271557 0.000271856 0.000274621 0.000271557 0.000632556 0.000274621 0.000853588 0.000271856 0.000274621 0.000284818 0.000319599 0.000274621 0.000853588 0.000319599 0.00094191 0.000632556 0.00119828 0.000853588 0.00158869 0.00119828 0.00179717 0.00158869 0.00163133 0.000853588 0.00158869 0.00094191 0.00180796 0.00158869 0.00163133 0.00180796 0.00134946 0.000451684 0.000650619 4.44049e-05 0.000631378 0.000650619 0.0024227 0.000631378 0.00218144 4.44049e-05 0.000631378 -0.00020878 0.0008657 0.000631378 0.00218144 0.0008657 0.00194018 0.000284818 0.000319599 0.000478643 0.000417531 0.000319599 0.00094191 0.000417531 0.000974857 0.000478643 0.000417531 0.000672469 0.000657867 0.000417531 0.000974857 0.000657867 0.00102887 0.00094191 0.00180796 0.000974857 0.00184275 0.00180796 0.00134946 0.00184275 0.000975301 0.000672469 0.000657867 0.000919786 0.000978408 0.000657867 0.00102887 0.000978408 0.00119788 0.000919786 0.000978408 0.0011671 0.00122965 0.000978408 0.00119788 0.00122965 0.00126539 0.000748429 0.000898606 0.000910342 0.00109654 0.000898606 0.0019053 0.00109654 0.00191307 0.000910342 0.00109654 0.00107226 0.00136762 0.00109654 0.00191307 0.00136762 0.00193945 4.49013e-05 0.000592888 9.18786e-05 0.000589324 9.18786e-05 0.000589324 0.000138856 0.000622339 0.000138856 0.000622339 0.000251068 0.000702113 0.000622339 0.00172622 0.000702113 0.00155239 0.000251068 0.000702113 0.000363281 0.000825393 0.000702113 0.00155239 0.000825393 0.00137856 0.000363687 0.000822009 0.00025115 0.000706417 0.000822009 0.00139758 0.000706417 0.00153972 0.00025115 0.000706417 0.000138613 0.000622566 0.00107226 0.00136762 0.00134164 0.00162272 0.00136762 0.00193945 0.00162272 0.00194981 0.00134164 0.00162272 0.00161103 0.00179092 0.00162272 0.00194981 0.00179092 0.00197083 0.000138613 0.000622566 9.17572e-05 0.000589608 9.17572e-05 0.000589608 4.49013e-05 0.000592888 0.000823831 0.000577478 0.000832752 0.000656118 0.000577478 0.00197669 0.000656118 0.00194867 0.000832752 0.000656118 0.000841673 0.000698039 0.000656118 0.00194867 0.000698039 0.00192866 0.000841673 0.000698039 0.000795051 0.000760767 0.000698039 0.00192866 0.000760767 0.0019133 0.000795051 0.000760767 0.000748429 0.000898606 0.000760767 0.0019133 0.000898606 0.0019053 0.000748772 0.000898529 0.000794105 0.000760971 0.000898529 0.00190531 0.000760971 0.00191322 0.000794105 0.000760971 0.000839438 0.000698565 0.000760971 0.00191322 0.000698565 0.00192845 0.000839438 0.000698565 0.000837363 0.000655073 0.000698565 0.00192845 0.000655073 0.00194896 0.000837363 0.000655073 0.000835288 0.000574661 0.000655073 0.00194896 0.000574661 0.00197749 0.00160779 0.00114389 0.00154758 0.00118045 0.00114389 0.00067999 0.00118045 0.000725363 0.00154758 0.00118045 0.00146975 0.0012245 0.00118045 0.000725363 0.0012245 0.000864081 0.00067999 0.000254027 0.000725363 0.000193523 0.000254027 -0.000171935 0.000193523 -9.88757e-05 0.00197083 0.00176271 0.00194981 0.00159045 0.00176271 0.00155459 0.00159045 0.00132478 0.00194981 0.00159045 0.00193945 0.00146528 0.00159045 0.00132478 0.00146528 0.00109496 0.00146975 0.0012245 0.00135343 0.00128388 0.0012245 0.000864081 0.00128388 0.00110521 0.00135343 0.00128388 0.00116716 0.00122963 0.00183193 0.0012985 0.00179834 0.00126953 0.0012985 0.000449734 0.00126953 0.000477456 0.00179834 0.00126953 0.00172622 0.00115779 0.00126953 0.000477456 0.00115779 0.000589357 0.000449734 0.000328534 0.000477456 0.000350447 0.000328534 0.00205948 0.000350447 0.00205086 0.000477456 0.000350447 0.000589357 0.000399574 0.000350447 0.00205086 0.000399574 0.00203261 0.000589357 0.000399574 0.000706594 0.000487466 0.000399574 0.00203261 0.000487466 0.00200442 0.000706594 0.000487466 0.000823831 0.000577478 0.000487466 0.00200442 0.000577478 0.00197669 0.00139758 0.00111643 0.00153972 0.0012462 0.00111643 0.000835288 0.0012462 0.00069535 0.00153972 0.0012462 0.00169992 0.0012979 0.0012462 0.00069535 0.0012979 0.000565649 0.000835288 0.000574661 0.00069535 0.00048837 0.000574661 0.00197749 0.00048837 0.00200326 0.00069535 0.00048837 0.000565649 0.000398181 0.00048837 0.00200326 0.000398181 0.0020323 0.00169992 0.0012979 0.0018012 0.00130074 0.0012979 0.000565649 0.00130074 0.000481683 0.0018012 0.00130074 0.00183193 0.0012985 0.00130074 0.000481683 0.0012985 0.000449734 0.000565649 0.000398181 0.000481683 0.000332521 0.000481683 0.000332521 0.000449734 0.000328534 0.00146528 0.00109496 0.00140412 0.000840413 0.00140412 0.000840413 0.00139463 0.000585865 0.00139462 0.000586177 0.00140411 0.00084057 0.00140411 0.00084057 0.00146528 0.00109496 0.00193945 0.00146528 0.00194981 0.00159045 0.00146528 0.00109496 0.00159045 0.00132478 0.00194981 0.00159045 0.00197083 0.00176271 0.00159045 0.00132478 0.00176271 0.00155459 0.00138479 0.000469226 0.00139462 0.000586177 0.00139463 0.000585865 0.0013853 0.000467574 0.00116716 0.00122963 0.000919805 0.000978397 0.00122963 0.0012654 0.000978397 0.00119788 0.000919805 0.000978397 0.000672454 0.000657867 0.000978397 0.00119788 0.000657867 0.00102887 0.000672454 0.000657867 0.000478636 0.000417532 0.000657867 0.00102887 0.000417532 0.000974857 0.000478636 0.000417532 0.000284818 0.000319599 0.000417532 0.000974857 0.000319599 0.00094191 0.000974857 0.00184275 0.00094191 0.00180796 0.00184275 0.000975301 0.00180796 0.00134946 0.000284818 0.000319599 0.000271856 0.000274621 0.000319599 0.00094191 0.000274621 0.000853588 0.000271856 0.000274621 0.000258894 0.000271556 0.000274621 0.000853588 0.000271556 0.000632556 0.00094191 0.00180796 0.000853588 0.00158869 0.00180796 0.00134946 0.00158869 0.00163133 0.000853588 0.00158869 0.000632556 0.00119828 0.00158869 0.00163133 0.00119828 0.00179717 0.000258894 0.000271556 0.000288079 0.000262274 0.000271556 0.000632556 0.000262274 0.000362981 0.000288079 0.000262274 0.000317264 0.000248695 0.000262274 0.000362981 0.000248695 0.000259163 0.0011671 0.00122965 0.00135325 0.00128391 0.00135325 0.00128391 0.00146496 0.00122568 0.00128391 0.00110521 0.00122568 0.000863724 0.00146496 0.00122568 0.00154788 0.00118035 0.00122568 0.000863724 0.00118035 0.000725391 0.00154788 0.00118035 0.0016078 0.00114389 0.00118035 0.000725391 0.00114389 0.000679985 0.000725391 0.000193516 0.000679985 0.000254026 0.000193516 -9.88746e-05 0.000254026 -0.000171934 0.000998187 0.000969457 0.00110337 0.0009256 0.00110337 0.0009256 0.00134285 0.000792874 0.00179717 0.00221982 0.00163133 0.00206247 0.00163133 0.00206247 0.00134946 0.00189649 0.00134946 0.00189649 0.00163133 0.00206247 0.00163133 0.00206247 0.00179717 0.00221982 0.00134285 0.000792874 0.00110337 0.0009256 0.00110337 0.0009256 0.000998187 0.000969457 0.000386499 0.000582961 0.000385516 0.000582727 0.000582961 0.00090607 0.000582727 0.000906386 0.000385516 0.000582727 0.000382162 0.000583636 0.000582727 0.000906386 0.000583636 0.000906702 0.000382162 0.000583636 0.000373823 0.000593222 0.000583636 0.000906702 0.000593222 0.000903133 0.000373823 0.000593222 0.000352205 0.000625885 0.000593222 0.000903133 0.000625885 0.000899564 0.000381683 0.00063539 0.000410447 0.000612327 0.00063539 0.000889096 0.000612327 0.000875494 0.000410447 0.000612327 0.000413251 0.000637572 0.000612327 0.000875494 0.000637572 0.000861892 0.000467574 0.000656501 0.000461222 0.000605734 0.000656501 0.000845427 0.000605734 0.000863453 0.000461222 0.000605734 0.000441869 0.00058987 0.000605734 0.000863453 0.00058987 0.000881479 0.000441869 0.00058987 0.000417459 0.000598235 0.00058987 0.000881479 0.000598235 0.000884824 0.000417459 0.000598235 0.000381335 0.000634752 0.000598235 0.000884824 0.000634752 0.000888169 0.000351967 0.000625786 0.000373565 0.000593076 0.000625786 0.000899604 0.000593076 0.000903183 0.000373565 0.000593076 0.000381943 0.000583502 0.000593076 0.000903183 0.000583502 0.000906761 0.000381943 0.000583502 0.000385392 0.000582651 0.000583502 0.000906761 0.000582651 0.000906415 0.000385392 0.000582651 0.000386499 0.000582961 0.000582651 0.000906415 0.000582961 0.00090607 0.000259163 0.000459406 0.000311072 0.000493825 0.000459406 0.000806681 0.000493825 0.000829927 0.000311072 0.000493825 0.000362981 0.000625339 0.000493825 0.000829927 0.000625339 0.000887697 0.000806681 0.00134542 0.000829927 0.00135077 0.00134542 0.00191205 0.00135077 0.00190061 0.000829927 0.00135077 0.000887697 0.00137779 0.00135077 0.00190061 0.00137779 0.00186788 0.000362981 0.000625339 0.000311072 0.000493825 0.000625339 0.000887697 0.000493825 0.000829927 0.000311072 0.000493825 0.000259163 0.000459406 0.000493825 0.000829927 0.000459406 0.000806681 0.000887697 0.00137779 0.000829927 0.00135077 0.00137779 0.00186788 0.00135077 0.00190061 0.000829927 0.00135077 0.000806681 0.00134542 0.00135077 0.00190061 0.00134542 0.00191205 0.000592888 0.00123593 0.000591106 0.00123475 0.00123593 0.00183193 0.00123475 0.00181513 0.000591106 0.00123475 0.000589324 0.00122326 0.00123475 0.00181513 0.00122326 0.00179834 0.000589324 0.00122326 0.000605831 0.00120292 0.00122326 0.00179834 0.00120292 0.00176228 0.000605831 0.00120292 0.000622339 0.00117428 0.00120292 0.00176228 0.00117428 0.00172622 0.000706417 0.00112307 0.000664491 0.00115379 0.00112307 0.00153972 0.00115379 0.00161982 0.000664491 0.00115379 0.000622566 0.00118163 0.00115379 0.00161982 0.00118163 0.00169992 0.000622566 0.00118163 0.000606087 0.00120563 0.00118163 0.00169992 0.00120563 0.00175056 0.000606087 0.00120563 0.000589608 0.00122254 0.00120563 0.00175056 0.00122254 0.0018012 0.000589608 0.00122254 0.000591248 0.00123448 0.00122254 0.0018012 0.00123448 0.00181657 0.000591248 0.00123448 0.000592888 0.00123593 0.00123448 