# vtk DataFile Version 3.0
#This file was generated by the deal.II library on 2023/2/27 at 0:39:46
ASCII
DATASET UNSTRUCTURED_GRID

FIELD FieldData 2
CYCLE 1 1 int
101
TIME 1 1 double
0.202
POINTS 42844 double
2.7746 -0.382683 2.7746
2.17999 -0.382683 3.26259
2.70926 -0.55557 2.70926
2.12865 -0.55557 3.18575
2.17999 -0.382683 3.26259
1.5016 -0.382683 3.62519
2.12865 -0.55557 3.18575
1.46624 -0.55557 3.53982
0.935443 -0.83147 2.25836
0.476885 -0.83147 2.39746
0.877452 -0.707107 2.11836
0.447321 -0.707107 2.24884
0.390181 1.22465e-16 -1.96157
0.765367 1.22465e-16 -1.84776
0.393929 0.19509 -1.98042
0.77272 0.19509 -1.86551
0.393929 0.19509 -1.98042
0.77272 0.19509 -1.86551
0.405031 0.382683 -2.03623
0.794497 0.382683 -1.91809
2.03623 0.382683 0.405031
1.91809 0.382683 0.794497
2.12686 0.55557 0.423059
2.00346 0.55557 0.829861
2.12686 0.55557 0.423059
2.00346 0.55557 0.829861
2.24884 0.707107 0.447321
2.11836 0.707107 0.877452
0.765367 1.22465e-16 -1.84776
1.11114 1.22465e-16 -1.66294
0.77272 0.19509 -1.86551
1.12182 0.19509 -1.67892
0.405031 0.382683 -2.03623
0.794497 0.382683 -1.91809
0.423059 0.55557 -2.12686
0.829861 0.55557 -2.00346
-1.11114 1.22465e-16 -1.66294
-0.765367 1.22465e-16 -1.84776
-1.12182 0.19509 -1.67892
-0.77272 0.19509 -1.86551
-1.12182 0.19509 -1.67892
-0.77272 0.19509 -1.86551
-1.15343 0.382683 -1.72623
-0.794497 0.382683 -1.91809
-1.15343 0.382683 -1.72623
-0.794497 0.382683 -1.91809
-1.20477 0.55557 -1.80307
-0.829861 0.55557 -2.00346
-1.20477 0.55557 -1.80307
-0.829861 0.55557 -2.00346
-1.27386 0.707107 -1.90647
-0.877452 0.707107 -2.11836
-1.27386 -0.707107 -1.90647
-0.877452 -0.707107 -2.11836
-1.20477 -0.55557 -1.80307
-0.829861 -0.55557 -2.00346
-1.20477 -0.55557 -1.80307
-0.829861 -0.55557 -2.00346
-1.15343 -0.382683 -1.72623
-0.794497 -0.382683 -1.91809
-1.15343 -0.382683 -1.72623
-0.794497 -0.382683 -1.91809
-1.12182 -0.19509 -1.67892
-0.77272 -0.19509 -1.86551
-1.12182 -0.19509 -1.67892
-0.77272 -0.19509 -1.86551
-1.11114 1.22465e-16 -1.66294
-0.765367 1.22465e-16 -1.84776
2.24884 -0.707107 0.447321
2.11836 -0.707107 0.877452
2.12686 -0.55557 0.423059
2.00346 -0.55557 0.829861
2.12686 -0.55557 0.423059
2.00346 -0.55557 0.829861
2.03623 -0.382683 0.405031
1.91809 -0.382683 0.794497
2.5914 0.980785 -1.07339
2.75101 0.980785 -0.547211
2.77164 1 -1.14805
2.94236 1 -0.585271
2.77164 -1 -1.14805
2.94236 -1 -0.585271
2.5914 -0.980785 -1.07339
2.75101 -0.980785 -0.547211
0.423059 -0.55557 -2.12686
0.829861 -0.55557 -2.00346
0.405031 -0.382683 -2.03623
0.794497 -0.382683 -1.91809
0.405031 -0.382683 -2.03623
0.794497 -0.382683 -1.91809
0.393929 -0.19509 -1.98042
0.77272 -0.19509 -1.86551
0.393929 -0.19509 -1.98042
0.77272 -0.19509 -1.86551
0.390181 1.22465e-16 -1.96157
0.765367 1.22465e-16 -1.84776
0.77272 -0.19509 -1.86551
1.12182 -0.19509 -1.67892
0.765367 1.22465e-16 -1.84776
1.11114 1.22465e-16 -1.66294
1.41865 -0.707107 -3.42492
2.05956 -0.707107 -3.08235
1.36066 -0.83147 -3.28492
1.97537 -0.83147 -2.95635
1.84776 1.22465e-16 -0.765367
1.96157 1.22465e-16 -0.390181
1.86551 0.19509 -0.77272
1.98042 0.19509 -0.393929
1.86551 0.19509 -0.77272
1.98042 0.19509 -0.393929
1.91809 0.382683 -0.794497
2.03623 0.382683 -0.405031
1.72623 0.382683 -1.15343
1.91809 0.382683 -0.794497
1.80307 0.55557 -1.20477
2.00346 0.55557 -0.829861
1.91809 0.382683 -0.794497
2.03623 0.382683 -0.405031
2.00346 0.55557 -0.829861
2.12686 0.55557 -0.423059
1.80307 -0.55557 -1.20477
2.00346 -0.55557 -0.829861
1.72623 -0.382683 -1.15343
1.91809 -0.382683 -0.794497
2.00346 -0.55557 -0.829861
2.12686 -0.55557 -0.423059
1.91809 -0.382683 -0.794497
2.03623 -0.382683 -0.405031
1.91809 -0.382683 -0.794497
2.03623 -0.382683 -0.405031
1.86551 -0.19509 -0.77272
1.98042 -0.19509 -0.393929
1.86551 -0.19509 -0.77272
1.98042 -0.19509 -0.393929
1.84776 1.22465e-16 -0.765367
1.96157 1.22465e-16 -0.390181
2.62132 -0.707107 -2.62132
3.08235 -0.707107 -2.05956
2.51417 -0.83147 -2.51417
2.95635 -0.83147 -1.97537
2.51417 0.83147 -2.51417
2.95635 0.83147 -1.97537
2.62132 0.707107 -2.62132
3.08235 0.707107 -2.05956
1.36066 0.83147 -3.28492
1.97537 0.83147 -2.95635
1.41865 0.707107 -3.42492
2.05956 0.707107 -3.08235
0.877452 0.707107 2.11836
0.447321 0.707107 2.24884
0.935443 0.83147 2.25836
0.476885 0.83147 2.39746
0.935443 0.83147 2.25836
0.476885 0.83147 2.39746
1.0016 0.92388 2.41809
0.510613 0.92388 2.56703
2.62132 0.707107 2.62132
2.05956 0.707107 3.08235
2.70926 0.55557 2.70926
2.12865 0.55557 3.18575
2.70926 0.55557 2.70926
2.12865 0.55557 3.18575
2.7746 0.382683 2.7746
2.17999 0.382683 3.26259
3.18575 -0.55557 2.12865
2.70926 -0.55557 2.70926
3.08235 -0.707107 2.05956
2.62132 -0.707107 2.62132
2.24884 0.707107 0.447321
2.11836 0.707107 0.877452
2.39746 0.83147 0.476885
2.25836 0.83147 0.935443
2.39746 0.83147 0.476885
2.25836 0.83147 0.935443
2.56703 0.92388 0.510613
2.41809 0.92388 1.0016
-0.765367 1.22465e-16 -1.84776
-0.390181 1.22465e-16 -1.96157
-0.77272 0.19509 -1.86551
-0.393929 0.19509 -1.98042
-0.77272 0.19509 -1.86551
-0.393929 0.19509 -1.98042
-0.794497 0.382683 -1.91809
-0.405031 0.382683 -2.03623
-0.794497 0.382683 -1.91809
-0.405031 0.382683 -2.03623
-0.829861 0.55557 -2.00346
-0.423059 0.55557 -2.12686
-0.829861 -0.55557 -2.00346
-0.423059 -0.55557 -2.12686
-0.794497 -0.382683 -1.91809
-0.405031 -0.382683 -2.03623
-0.794497 -0.382683 -1.91809
-0.405031 -0.382683 -2.03623
-0.77272 -0.19509 -1.86551
-0.393929 -0.19509 -1.98042
-0.77272 -0.19509 -1.86551
-0.393929 -0.19509 -1.98042
-0.765367 1.22465e-16 -1.84776
-0.390181 1.22465e-16 -1.96157
1.46624 -0.55557 -3.53982
2.12865 -0.55557 -3.18575
1.41865 -0.707107 -3.42492
2.05956 -0.707107 -3.08235
1.41865 0.707107 -3.42492
2.05956 0.707107 -3.08235
1.46624 0.55557 -3.53982
2.12865 0.55557 -3.18575
2.7746 -0.382683 -2.7746
3.26259 -0.382683 -2.17999
2.70926 -0.55557 -2.70926
3.18575 -0.55557 -2.12865
2.56703 0.92388 0.510613
2.41809 0.92388 1.0016
2.75101 0.980785 0.547211
2.5914 0.980785 1.07339
0.765367 1.22465e-16 1.84776
0.390181 1.22465e-16 1.96157
0.77272 0.19509 1.86551
0.393929 0.19509 1.98042
0.77272 0.19509 1.86551
0.393929 0.19509 1.98042
0.794497 0.382683 1.91809
0.405031 0.382683 2.03623
2.94236 -1 0.585271
2.77164 -1 1.14805
2.75101 -0.980785 0.547211
2.5914 -0.980785 1.07339
0.794497 0.382683 1.91809
0.405031 0.382683 2.03623
0.829861 0.55557 2.00346
0.423059 0.55557 2.12686
2.56703 -0.92388 0.510613
2.41809 -0.92388 1.0016
2.39746 -0.83147 0.476885
2.25836 -0.83147 0.935443
2.39746 -0.83147 0.476885
2.25836 -0.83147 0.935443
2.24884 -0.707107 0.447321
2.11836 -0.707107 0.877452
-1.84776 1.22465e-16 0.765367
-1.96157 1.22465e-16 0.390181
-1.86551 0.19509 0.77272
-1.98042 0.19509 0.393929
-1.96157 1.22465e-16 -0.390181
-1.84776 1.22465e-16 -0.765367
-1.98042 0.19509 -0.393929
-1.86551 0.19509 -0.77272
-1.98042 0.19509 -0.393929
-1.86551 0.19509 -0.77272
-2.03623 0.382683 -0.405031
-1.91809 0.382683 -0.794497
-1.86551 0.19509 -0.77272
-1.67892 0.19509 -1.12182
-1.91809 0.382683 -0.794497
-1.72623 0.382683 -1.15343
-2.03623 0.382683 -0.405031
-1.91809 0.382683 -0.794497
-2.12686 0.55557 -0.423059
-2.00346 0.55557 -0.829861
-2.12686 0.55557 -0.423059
-2.00346 0.55557 -0.829861
-2.24884 0.707107 -0.447321
-2.11836 0.707107 -0.877452
-1.91809 0.382683 -0.794497
-1.72623 0.382683 -1.15343
-2.00346 0.55557 -0.829861
-1.80307 0.55557 -1.20477
-2.24884 0.707107 -0.447321
-2.11836 0.707107 -0.877452
-2.39746 0.83147 -0.476885
-2.25836 0.83147 -0.935443
-2.39746 -0.83147 -0.476885
-2.25836 -0.83147 -0.935443
-2.24884 -0.707107 -0.447321
-2.11836 -0.707107 -0.877452
-2.24884 -0.707107 -0.447321
-2.11836 -0.707107 -0.877452
-2.12686 -0.55557 -0.423059
-2.00346 -0.55557 -0.829861
-2.12686 -0.55557 -0.423059
-2.00346 -0.55557 -0.829861
-2.03623 -0.382683 -0.405031
-1.91809 -0.382683 -0.794497
-2.00346 -0.55557 -0.829861
-1.80307 -0.55557 -1.20477
-1.91809 -0.382683 -0.794497
-1.72623 -0.382683 -1.15343
-2.03623 -0.382683 -0.405031
-1.91809 -0.382683 -0.794497
-1.98042 -0.19509 -0.393929
-1.86551 -0.19509 -0.77272
-1.98042 -0.19509 -0.393929
-1.86551 -0.19509 -0.77272
-1.96157 1.22465e-16 -0.390181
-1.84776 1.22465e-16 -0.765367
-1.91809 -0.382683 -0.794497
-1.72623 -0.382683 -1.15343
-1.86551 -0.19509 -0.77272
-1.67892 -0.19509 -1.12182
-1.86551 -0.19509 0.77272
-1.98042 -0.19509 0.393929
-1.84776 1.22465e-16 0.765367
-1.96157 1.22465e-16 0.390181
-2.51417 -0.83147 2.51417
-2.95635 -0.83147 1.97537
-2.39192 -0.92388 2.39192
-2.8126 -0.92388 1.87932
-2.39192 0.92388 2.39192
-2.8126 0.92388 1.87932
-2.51417 0.83147 2.51417
-2.95635 0.83147 1.97537
1.96157 1.22465e-16 0.390181
1.84776 1.22465e-16 0.765367
1.98042 0.19509 0.393929
1.86551 0.19509 0.77272
1.98042 0.19509 0.393929
1.86551 0.19509 0.77272
2.03623 0.382683 0.405031
1.91809 0.382683 0.794497
2.03623 -0.382683 0.405031
1.91809 -0.382683 0.794497
1.98042 -0.19509 0.393929
1.86551 -0.19509 0.77272
1.98042 -0.19509 0.393929
1.86551 -0.19509 0.77272
1.96157 1.22465e-16 0.390181
1.84776 1.22465e-16 0.765367
-3.62519 -0.382683 -1.5016
-3.26259 -0.382683 -2.17999
-3.53982 -0.55557 -1.46624
-3.18575 -0.55557 -2.12865
-3.53982 -0.55557 -1.46624
-3.18575 -0.55557 -2.12865
-3.42492 -0.707107 -1.41865
-3.08235 -0.707107 -2.05956
2.70926 0.55557 -2.70926
3.18575 0.55557 -2.12865
2.7746 0.382683 -2.7746
3.26259 0.382683 -2.17999
-2.22228 0 -3.32588
-1.53073 0 -3.69552
-2.21161 -0.19509 -3.3099
-1.52338 -0.19509 -3.67777
0.794497 -0.382683 1.91809
0.405031 -0.382683 2.03623
0.77272 -0.19509 1.86551
0.393929 -0.19509 1.98042
-3.42492 0.707107 -1.41865
-3.08235 0.707107 -2.05956
-3.53982 0.55557 -1.46624
-3.18575 0.55557 -2.12865
-3.53982 0.55557 -1.46624
-3.18575 0.55557 -2.12865
-3.62519 0.382683 -1.5016
-3.26259 0.382683 -2.17999
-2.21161 0.19509 -3.3099
-1.52338 0.19509 -3.67777
-2.22228 0 -3.32588
-1.53073 0 -3.69552
3.08235 -0.707107 2.05956
2.62132 -0.707107 2.62132
2.95635 -0.83147 1.97537
2.51417 -0.83147 2.51417
1.11114 1.22465e-16 1.66294
0.765367 1.22465e-16 1.84776
1.12182 0.19509 1.67892
0.77272 0.19509 1.86551
[...]
POINT_DATA 42844
SCALARS U double 1
LOOKUP_TABLE default
-7.9968e-05 0.000484136 0.000812063 0.00134149 0.000484136 0.000889054 0.00134149 0.00151441 0.00421718 -0.000991296 0.00380675 -0.000552106 -0.00196001 0.00350557 -0.00193753 0.00360325 -0.00193753 0.00360325 -0.00186632 0.00384214 -0.00065656 0.00418468 -0.000578489 0.00437646 -0.000578489 0.00437646 -0.000474291 0.00464731 0.00350557 0.00901889 0.00360325 0.009186 -0.00186632 0.00384214 -0.00176776 0.00421103 0.00854848 0.0027673 0.00876176 0.00290968 0.00876176 0.00290968 0.00933669 0.00329466 0.00933669 0.00329466 0.010075 0.00383387 0.010075 0.00383387 0.0107648 0.00453869 0.0107646 0.00453852 0.0100749 0.00383373 0.0100749 0.00383373 0.00933665 0.00329458 0.00933665 0.00329458 0.00876175 0.00290965 0.00876175 0.00290965 0.00854848 0.0027673 -0.000348824 0.00490671 -0.000490384 0.00457349 -0.000490384 0.00457349 -0.000601295 0.00429763 0.0053926 -0.000577061 0.00528002 -0.00047777 0.005276 -0.000443006 0.00538793 -0.000569761 -0.0017672 0.0042116 -0.00186585 0.00384291 -0.00186585 0.00384291 -0.00193727 0.00360373 -0.00193727 0.00360373 -0.00196001 0.00350557 0.00360373 0.00918642 0.00350557 0.00901889 0.00263732 0.00270161 0.00359689 0.00407446 0.00335253 -0.00135054 0.0034462 -0.00132212 0.0034462 -0.00132212 0.00374201 -0.00124432 0.00929615 0.00374201 0.00983281 0.00414272 0.00374201 -0.00124432 0.00414272 -0.00114852 0.00983003 0.00413865 0.00929356 0.00373944 0.00413865 -0.00114221 0.00373944 -0.00124115 0.00373944 -0.00124115 0.00344503 -0.00132083 0.00344503 -0.00132083 0.00335253 -0.00135054 0.00224683 0.00254165 0.00374877 0.00395567 0.00374921 0.00393688 0.00225223 0.00252499 0.00360209 0.00408902 0.00264153 0.00271323 0.00400272 -0.000279782 0.00449279 -0.000967284 0.00449279 -0.000967284 0.00470349 -0.000860222 0.00217852 0.00254248 0.000966611 0.00142217 0.000966611 0.00142217 4.27227e-05 0.000557987 0.00145632 0.000812063 0.00256922 0.00201934 -0.000474291 0.00464731 -0.000336462 0.00488056 -0.000336462 0.00488056 -0.000181909 0.00513206 0.0027673 -0.0023637 0.00290968 -0.0023085 0.00290968 -0.0023085 0.00329466 -0.00216378 0.00329466 -0.00216378 0.00383387 -0.00199033 0.00383373 -0.00199037 0.00329458 -0.00216382 0.00329458 -0.00216382 0.00290965 -0.00230852 0.00290965 -0.00230852 0.0027673 -0.0023637 0.00178619 0.00156911 0.00263732 0.00270161 0.00264153 0.00271323 0.00178968 0.00157868 9.62962e-07 0.000509677 0.000977201 0.00136633 -0.000181909 0.00513206 -2.07601e-05 0.0052337 0.00285115 -0.000741184 0.00298262 -0.000575664 0.00298262 -0.000575664 0.00330944 -0.000386579 8.77948e-05 0.00525692 3.39719e-05 0.00541596 0.00330944 -0.000386579 0.00359947 -0.000470908 -7.37628e-05 0.0054006 -0.000198963 0.00518807 -0.000198963 0.00518807 -0.000348824 0.00490671 0.00276014 -0.00271789 0.00280827 -0.00272523 -0.00194519 0.0035882 -0.00186821 0.00377101 -0.00186821 0.00377101 -0.00163751 0.00420167 0.00377101 0.00956535 0.00420167 0.0100336 -0.00163751 0.00420167 -0.00130401 0.00480288 -0.00130401 0.00480288 -0.000893662 0.00547702 0.00420167 0.0100336 0.00480288 0.0106736 -0.000893662 0.00547702 -0.00047182 0.00620104 -0.000471263 0.00620156 -0.000893248 0.00547745 -0.000893248 0.00547745 -0.00130373 0.00480321 -0.00130373 0.00480321 -0.00163734 0.00420189 0.00480321 0.0106739 0.00420189 0.0100338 -0.00163734 0.00420189 -0.00186813 0.00377112 -0.00186813 0.00377112 -0.00194519 0.0035882 0.00420189 0.0100338 0.00377112 0.00956544 0.00282551 -0.00272205 0.00276014 -0.00271789 0.00377145 0.00391282 0.00551494 0.00556184 0.0054736 0.00555734 0.00376075 0.00390887 -0.0007016 0.00400251 -0.000697407 0.00404512 -0.000697407 0.00404512 -0.00065656 0.00418468 -0.000601295 0.00429763 -0.000671571 0.00409636 -0.000671571 0.00409636 -0.0007016 0.00400251 0.00125319 0.000354557 0.00216243 0.00132151 0.00216243 0.00132151 0.00330094 0.00262538 0.000987486 0.00135597 8.16464e-06 0.00051142 -0.00103976 -0.000466771 -0.000851083 -0.000256294 0.00314007 -0.000752163 0.00290924 -0.000785888 0.00330099 0.00262567 0.00216253 0.00132177 0.00216253 0.00132177 0.0012533 0.00035476 -0.000851149 -0.000256578 -0.00103976 -0.000466771 0.00256922 0.00201934 0.00389185 0.00345197 0.00792845 0.00285115 0.0080965 0.00298262 0.0080965 0.00298262 0.00847536 0.00330944 0.00464731 0.00916952 0.00488056 0.00910107 0.00488056 0.00910107 0.00513206 0.00889299 0.00841103 0.00314007 0.0080427 0.00290924 0.0080427 0.00290924 0.00792845 0.00285115 0.0007758 0.00124638 0.00214956 0.00231114 0.00214943 0.00231034 0.00077566 0.00124566 0.000812063 0.00107678 0.0014157 0.00161467 0.00107678 0.00134149 0.00161467 0.00185303 0.0014157 0.00161467 0.00201934 0.00222769 0.00161467 0.00185303 0.00222769 0.00242474 -0.00120195 -0.00248103 -0.00115553 -0.00247148 -0.00115553 -0.00247148 -0.000561271 -0.00248273 -0.000561271 -0.00248273 -0.000724787 -0.00247039 -0.00187115 -0.00283823 -0.00178453 -0.0027891 -0.00178453 -0.0027891 -0.0016856 -0.00273538 -0.0016856 -0.00273538 -0.00158625 -0.00267728 -0.00158625 -0.00267728 -0.00148409 -0.0026218 0.00134149 0.00142795 0.00185303 0.00198717 0.00142795 0.00151441 0.00198717 0.00185141 0.00185303 0.00198717 0.00242474 0.00252942 -0.000188241 7.96864e-05 -0.000151001 0.000123184 7.96864e-05 0.000313672 0.000123184 0.000358433 -0.000151001 0.000123184 -2.51563e-05 0.000255462 0.000123184 0.000358433 0.000255462 0.000472824 -0.00148409 -0.0026218 -0.00138912 -0.00257109 -0.00138912 -0.00257109 -0.00130795 -0.00252831 -0.00130795 -0.00252831 -0.00124177 -0.00249806 -0.00124177 -0.00249806 -0.00120195 -0.00248103 -0.000205075 -0.00203162 -0.000189427 -0.00201866 -0.000189427 -0.00201866 -0.00011974 -0.00199597 -0.00203162 -0.00292463 -0.00201866 -0.00293514 -0.00201866 -0.00293514 -0.00199597 -0.00291298 -0.000587776 -0.00246138 -0.000556357 -0.00247869 -0.000556357 -0.00247869 -0.000609036 -0.00248615 0.000472824 -0.00011974 0.000639396 5.72865e-06 -0.00011974 -0.00199597 5.72865e-06 -0.00193874 5.72865e-06 -0.00193874 0.000153454 -0.00187115 -0.000609036 -0.00248615 -0.00121699 -0.00252571 -0.00121699 -0.00252571 -0.00129049 -0.00257124 -0.00176873 -0.00280836 -0.00184807 -0.00283221 -0.00184807 -0.00283221 -0.00191901 -0.00286474 -0.00199597 -0.00291298 -0.00193874 -0.00289295 -0.00193874 -0.00289295 -0.00187115 -0.00283823 -0.000483153 -0.000151001 -0.000375941 -2.51563e-05 -0.00129049 -0.00257124 -0.00134615 -0.00261165 -0.00134615 -0.00261165 -0.00141652 -0.00265841 -0.00141652 -0.00265841 -0.00150142 -0.00268718 -0.00150142 -0.00268718 -0.00159031 -0.00272749 -0.000579821 -0.000375941 -0.000372913 -0.000145093 -0.000375941 -2.51563e-05 -0.000145093 0.000181084 -0.000372913 -0.000145093 -7.9968e-05 0.000202084 -0.000145093 0.000181084 0.000202084 0.000484136 -2.51563e-05 0.000255462 0.000181084 0.000452423 0.000181084 0.000452423 0.000484136 0.000686595 0.000452423 0.000639396 0.000686595 0.000889054 0.000889054 0.000153454 0.00120173 0.000329621 0.00120173 0.000329621 0.00151441 0.0005444 0.000329621 -0.00178453 0.0005444 -0.0016856 -0.000794015 -0.000865492 -0.000676732 -0.000824512 -0.000865492 -0.00105495 -0.000824512 -0.00104883 -0.000676732 -0.000824512 -0.000334741 -0.000677337 -0.00191901 -0.00286474 -0.00202759 -0.00287705 -0.00202759 -0.00287705 -0.00205783 -0.00290357 -0.00159031 -0.00272749 -0.00167539 -0.00279301 -0.00167539 -0.00279301 -0.00176873 -0.00280836 -0.00205783 -0.00290357 -0.00208193 -0.0029053 -0.00208193 -0.0029053 -0.00203162 -0.00292463 -0.0044263 -0.00312461 -0.00443395 -0.00315471 -0.00312461 -0.000946581 -0.00315471 -0.00101194 -0.00443395 -0.00315471 -0.00445146 -0.00315973 -0.00315471 -0.00101194 -0.00315973 -0.00105723 -0.00105495 -0.00139085 -0.00104883 -0.00135312 -0.00139085 -0.00179647 -0.00135312 -0.00171032 -0.00104883 -0.00135312 -0.000964051 -0.00117303 -0.00135312 -0.00171032 -0.00117303 -0.00146209 -0.000334741 -0.000677337 9.85763e-05 -0.000471899 -0.000677337 -0.000964051 -0.000471899 -0.00072681 9.85763e-05 -0.000471899 0.000578644 -0.000211874 -0.000471899 -0.00072681 -0.000211874 -0.000302486 -0.000964051 -0.00117303 -0.00072681 -0.000882639 -0.00117303 -0.00146209 -0.000882639 -0.00110246 -0.00072681 -0.000882639 -0.000302486 -0.000508204 -0.000882639 -0.00110246 -0.000508204 -0.000652398 -0.000991296 -0.00263358 -0.000771701 -0.00274486 -0.000771701 -0.00274486 -0.000552106 -0.00285605 -0.000123419 -0.00165916 -9.14963e-05 -0.00164196 -0.0029807 -0.000705707 -0.00304357 -0.000849989 -0.00101194 0.000423353 -0.00105723 0.000368042 0.00172613 -0.00120195 0.00182091 -0.00115553 0.00182091 -0.00115553 0.00168667 -0.000561271 -0.000293034 0.00168116 -0.000186786 0.0019205 -0.000186786 0.0019205 -7.77378e-05 0.00214647 -7.77378e-05 0.00214647 1.65121e-06 0.00233592 0.00214647 0.00351049 0.00233592 0.0038681 1.65121e-06 0.00233592 6.21121e-05 0.00249321 0.00233592 0.0038681 0.00249321 0.00419859 0.00168667 -0.000561271 0.00172825 -0.000724787 0.00172825 -0.000724787 0.00172062 -0.00076372 0.0005444 -0.0016856 0.000769132 -0.00158625 0.000769132 -0.00158625 0.000989444 -0.00148409 6.21121e-05 0.00249321 9.89493e-05 0.00262191 0.00249321 0.00419859 0.00262191 0.00451582 9.89493e-05 0.00262191 0.000114434 0.00271562 0.00262191 0.00451582 0.00271562 0.00479977 0.000114434 0.00271562 0.000106675 0.00273826 0.00271562 0.00479977 0.00273826 0.00503628 0.000106675 0.00273826 8.77948e-05 0.00267236 0.00273826 0.00503628 0.00267236 0.00525692 -0.00268878 -0.000293034 -0.00258636 -0.000186786 0.00222626 0.000989444 0.00260354 0.00120456 0.000989444 -0.00148409 0.00120456 -0.00138912 0.00260354 0.00120456 0.00296688 0.0014122 0.00120456 -0.00138912 0.0014122 -0.00130795 0.0014122 -0.00130795 0.00158432 -0.00124177 0.00158432 -0.00124177 0.00172613 -0.00120195 7.59879e-05 0.00280748 0.000124132 0.00281024 0.00280748 0.00511926 0.00281024 0.00499277 0.000124132 0.00281024 0.000148337 0.00277802 0.00281024 0.00499277 0.00277802 0.00480915 0.000148337 0.00277802 0.000152848 0.00269889 0.00277802 0.00480915 0.00269889 0.00457124 0.000152848 0.00269889 0.000134157 0.00258451 0.00269889 0.00457124 0.00258451 0.00428175 -0.00445146 -0.00315973 -0.00447507 -0.0031579 -0.00315973 -0.00105723 -0.0031579 -0.0010501 -0.00447507 -0.0031579 -0.00445444 -0.00315255 -0.0031579 -0.0010501 -0.00315255 -0.000988788 0.00175791 -0.000587776 0.001716 -0.000556357 0.001716 -0.000556357 0.00170074 -0.000609036 0.00170074 -0.000609036 0.00179956 -0.00121699 0.00179956 -0.00121699 0.00168221 -0.00129049 -0.00105723 0.000368042 -0.0010501 0.000385142 -0.0010501 0.000385142 -0.000988788 0.000472159 0.00147406 0.000492176 0.00113667 0.000293767 0.000492176 -0.00176873 0.000293767 -0.00184807 0.000293767 -0.00184807 0.000119295 -0.00191901 0.000134157 0.00258451 9.29764e-05 0.00243785 0.00258451 0.00428175 0.00243785 0.00395793 9.29764e-05 0.00243785 3.241e-05 0.00224663 0.00168221 -0.00129049 0.0015241 -0.00134615 0.0015241 -0.00134615 0.00134053 -0.00141652 0.00295964 0.00134053 0.00258667 0.0011309 0.00134053 -0.00141652 0.0011309 -0.00150142 0.00258667 0.0011309 0.00223038 0.000912993 0.0011309 -0.00150142 0.000912993 -0.00159031 3.241e-05 0.00224663 -5.31863e-05 0.00204023 -5.31863e-05 0.00204023 -0.000178655 0.00182759 -0.00445444 -0.00315255 -0.00444527 -0.0031094 -0.00315255 -0.000988788 -0.0031094 -0.000915546 -0.0031094 -0.000915546 -0.00304846 -0.000806212 0.000268477 -0.00141834 0.000475866 -0.00129478 0.000475866 -0.00129478 0.000717613 -0.00115524 0.000912993 -0.00159031 0.000695153 -0.00167539 0.000695153 -0.00167539 0.000492176 -0.00176873 0.000717613 -0.00115524 0.000982148 -0.0010091 0.000982148 -0.0010091 0.00125719 -0.000869495 -0.00362694 -0.00444527 -0.00355449 -0.00438712 -0.00278116 -0.00043459 -0.00289316 -0.000564867 -0.00426867 -0.00289316 -0.00435661 -0.0029807 -0.00289316 -0.000564867 -0.0029807 -0.000705707 -0.00165916 -0.00368381 -0.00164196 -0.00370463 -0.00368381 -0.00445146 -0.00370463 -0.00447507 4.27227e-05 0.000300355 -0.000276773 -4.80566e-05 0.000300355 0.000557987 -4.80566e-05 0.000251175 -0.00346763 -0.00430691 -0.00337609 -0.00421125 -0.00392658 -0.00259918 -0.0040453 -0.00268512 -0.00259918 -0.000178655 -0.00268512 -0.00030364 -0.0040453 -0.00268512 -0.00417745 -0.00278116 -0.00268512 -0.00030364 -0.00278116 -0.00043459 -0.000178655 0.00182759 -0.00030364 0.00158099 0.00182759 0.00282737 0.00158099 0.00243379 -0.00030364 0.00158099 -0.00043459 0.00132369 -0.000564867 0.00108312 -0.000705707 0.000864087 0.00708508 0.00449279 0.0072448 0.00459814 0.0072448 0.00459814 0.00732623 0.00470349 0.00691424 0.00468418 0.0069122 0.00462252 -0.00306494 -0.00231657 -0.00308587 -0.00231072 -0.00231657 -0.000578489 -0.00231072 -0.00052639 -0.00308587 -0.00231072 -0.00311273 -0.00230169 -0.00231072 -0.00052639 -0.00230169 -0.000474291 0.00502982 0.00503478 0.0058309 0.00577564 0.00503478 0.00503783 0.00577564 0.00569035 0.0058309 0.00577564 0.00662416 0.00649727 0.00577564 0.00569035 0.00649727 0.00632638 -0.00355945 -0.00435661 -0.00360373 -0.0043832 -0.00155423 -0.00360373 -0.00161942 -0.00362194 -0.00360373 -0.0043832 -0.00362194 -0.0044263 -0.00161942 -0.00362194 -0.00164517 -0.00364898 -0.00362194 -0.0044263 -0.00364898 -0.00443395 -0.00164517 -0.00364898 -0.00165916 -0.00368381 -0.00364898 -0.00443395 -0.00368381 -0.00445146 0.0126243 0.0126018 0.0117472 0.0119492 0.0117472 0.0119492 0.0109045 0.0112649 0.00865509 0.0115704 0.00890443 0.0118562 0.00890443 0.0118562 0.00909619 0.0120725 -0.00304388 -0.00232347 -0.00305361 -0.00232233 -0.00232347 -0.00065656 -0.00232233 -0.000617524 -0.00305361 -0.00232233 -0.00306494 -0.00231657 -0.00232233 -0.000617524 -0.00231657 -0.000578489 0.0109104 0.0112697 0.0117671 0.0119577 0.0117671 0.0119577 0.0126578 0.0126132 -0.00449955 -0.0037826 -0.00449914 -0.00378395 -0.0037826 -0.00196001 -0.00378395 -0.00194877 -0.00449914 -0.00378395 -0.00450217 -0.00378106 -0.00378395 -0.00194877 -0.00378106 -0.00193753 -9.69029e-05 -0.00164517 -0.000123419 -0.00165916 0.00901889 0.0108059 0.00910245 0.0108262 0.00910245 0.0108262 0.009186 0.0109439 0.00360325 0.00639463 0.00372269 0.0066473 0.00639463 0.009186 0.0066473 0.0093349 0.00372269 0.0066473 0.00384214 0.00685654 0.009186 0.0109439 0.0093349 0.0111226 -0.00421125 -0.00286666 -0.00408582 -0.00278143 -0.00286666 -0.000557223 -0.00278143 -0.000415579 -0.00408582 -0.00278143 -0.00400374 -0.00268878 -0.00278143 -0.000415579 -0.00268878 -0.000293034 -0.00303269 -0.00226275 -0.00302874 -0.00227933 -0.00226275 -0.000490384 -0.00227933 -0.000545839 -0.00302874 -0.00227933 -0.00302529 -0.0022904 -0.00227933 -0.000545839 -0.0022904 -0.000601295 0.00384214 0.00685654 0.00402659 0.00708032 0.00402659 0.00708032 0.00421103 0.00731642 0.00708032 0.00975589 0.00731642 0.00996222 0.00975589 0.0115326 0.00996222 0.0117656 0.00996222 0.0117656 0.0101612 0.0119185 0.0117656 0.0123784 0.0119185 0.012528 -0.00450217 -0.00378106 -0.00450271 -0.00377775 -0.00378106 -0.00193753 -0.00377775 -0.00190193 -0.00450271 -0.00377775 -0.00451696 -0.00377999 -0.00377775 -0.00190193 -0.00377999 -0.00186632 0.0123541 0.0118561 0.0120459 0.0116292 0.0118561 0.0103467 0.0116292 0.0102615 0.0120459 0.0116292 0.0116232 0.0112766 0.0116292 0.0102615 0.0112766 0.0100881 0.00662416 0.00649727 0.0073981 0.00719368 0.00649727 0.00632638 0.00719368 0.0069271 0.0073981 0.00719368 0.00813277 0.00784804 0.00719368 0.0069271 0.00784804 0.00747411 -0.00451696 -0.00377999 -0.00453053 -0.0037871 -0.00377999 -0.00186632 -0.0037871 -0.00181704 -0.0037871 -0.00181704 -0.00374014 -0.00176776 0.0116219 0.0112917 0.0120467 0.0116416 0.0112917 0.0100972 0.0116416 0.0102693 0.0120467 0.0116416 0.0123558 0.0118649 0.0116416 0.0102693 0.0118649 0.0103542 0.0106979 0.00880672 0.0108497 0.00890667 0.011565 0.0108497 0.0117194 0.0110129 0.0117194 0.0110129 0.0119191 0.0112152 0.0110129 0.00907151 0.0112152 0.00929615 -0.00135054 -0.00269145 -0.00133633 -0.00269292 -0.00269145 -0.00302104 -0.00269292 -0.00302343 -0.00133633 -0.00269292 -0.00132212 -0.00268859 -0.00269292 -0.00302343 -0.00268859 -0.003029 -0.00132212 -0.00268859 -0.00128322 -0.00268566 -0.00268859 -0.003029 -0.00268566 -0.00303503 -0.00128322 -0.00268566 -0.00124432 -0.00267877 -0.00268566 -0.00303503 -0.00267877 -0.00304388 0.0119191 0.0112152 0.0121423 0.0114549 0.0112152 0.00929615 0.0114549 0.00956448 0.0121423 0.0114549 0.0123784 0.0116869 0.0114549 0.00956448 0.0116869 0.00983281 0.0123784 0.0116869 0.012528 0.011844 0.012528 0.011844 0.012555 0.0119861 0.0054006 0.00763518 0.00529433 0.00765761 0.00529433 0.00765761 0.00518807 0.00760449 0.00765761 0.00945854 0.00760449 0.00953535 0.00945854 0.0103865 0.00953535 0.0106852 0.00812856 0.00792122 0.00743135 0.00728637 0.00792122 0.00762082 0.00728637 0.0070733 0.00743135 0.00728637 0.00669281 0.0066057 0.00728637 0.0070733 0.0066057 0.00646996 0.00953535 0.0106852 0.00956308 0.0108299 0.0106852 0.011064 0.0108299 0.0112074 0.00956308 0.0108299 0.00953753 0.0108419 -0.000279782 -0.00266016 -0.000623533 -0.00254313 -0.000623533 -0.00254313 -0.000967284 -0.00242058 -0.000967284 -0.00242058 -0.000913753 -0.00243811 -0.000913753 -0.00243811 -0.000860222 -0.00244732 0.00421103 0.00731642 0.00446191 0.00754311 0.00731642 0.00996222 0.00754311 0.0101612 0.00446191 0.00754311 0.00471395 0.00775005 -0.00124432 -0.00267877 -0.00119642 -0.00267137 -0.00267877 -0.00304388 -0.00267137 -0.00305361 -0.00119642 -0.00267137 -0.00114852 -0.00265738 -0.00267137 -0.00305361 -0.00265738 -0.00306494 0.0142855 0.0144533 0.0143397 0.014946 -0.00114852 -0.00265738 -0.00106122 -0.00267326 -0.00265738 -0.00306494 -0.00267326 -0.00308587 -0.00106122 -0.00267326 -0.00100385 -0.00269425 -0.00267326 -0.00308587 -0.00269425 -0.00311273 0.012556 0.0119887 0.0125283 0.0118442 0.0125283 0.0118442 0.0123782 0.0116859 0.0123782 0.0116859 0.012142 0.0114534 0.0116859 0.00983003 0.0114534 0.00956179 0.012142 0.0114534 0.0119187 0.0112139 0.0114534 0.00956179 0.0112139 0.00929356 0.00669281 0.0066057 0.00593083 0.00589717 0.0066057 0.00646996 0.00589717 0.00582938 0.00593083 0.00589717 0.00515474 0.00516536 0.00589717 0.00582938 0.00516536 0.00517106 -0.000992008 -0.00266473 -0.00105239 -0.00265049 -0.00266473 -0.00306208 -0.00265049 -0.00304504 -0.00105239 -0.00265049 -0.00114221 -0.00263995 -0.00265049 -0.00304504 -0.00263995 -0.00303269 -0.00438712 -0.00304846 -0.00430691 -0.00296696 -0.00304846 -0.000806212 -0.00296696 -0.000682598 -0.00296696 -0.000682598 -0.00286666 -0.000557223 -0.000415579 0.00144091 -0.000293034 0.00168116 -0.00114221 -0.00263995 -0.00119168 -0.0026585 -0.00263995 -0.00303269 -0.0026585 -0.00302874 -0.00119168 -0.0026585 -0.00124115 -0.00266945 -0.0026585 -0.00302874 -0.00266945 -0.00302529 0.0119187 0.0112139 0.0117191 0.0110119 0.0112139 0.00929356 0.0110119 0.0090698 0.0117191 0.0110119 0.0115648 0.010849 0.00470349 0.00192163 0.00489323 0.00174056 0.00192163 -0.000860222 0.00174056 -0.000770777 0.00489323 0.00174056 0.00488931 0.00178911 0.00174056 -0.000770777 0.00178911 -0.000738892 0.010849 0.00890557 0.0106976 0.00880619 -0.00124115 -0.00266945 -0.00128099 -0.00267923 -0.00266945 -0.00302529 -0.00267923 -0.00302178 -0.00128099 -0.00267923 -0.00132083 -0.00268451 -0.00267923 -0.00302178 -0.00268451 -0.0030205 -0.00132083 -0.00268451 -0.00133569 -0.00269095 -0.00268451 -0.0030205 -0.00269095 -0.00301924 -0.00133569 -0.00269095 -0.00135054 -0.00269145 -0.00269095 -0.00301924 -0.00269145 -0.00302104 0.00864675 0.010027 0.00872275 0.0101149 0.00125719 -0.000869495 0.00152717 -0.000727402 0.00152717 -0.000727402 0.00178401 -0.000601907 -0.000869495 -0.00317515 -0.000727402 -0.00304928 -0.00317515 -0.00400374 -0.00304928 -0.00386617 -0.000727402 -0.00304928 -0.000601907 -0.00293497 -0.00304928 -0.00386617 -0.00293497 -0.00374638 0.00178401 -0.000601907 0.00201674 -0.000504894 0.00201674 -0.000504894 0.00221929 -0.00043893 -0.000601907 -0.00293497 -0.000504894 -0.00285394 -0.00293497 -0.00374638 -0.00285394 -0.00365018 -0.000504894 -0.00285394 -0.00043893 -0.00278635 -0.00285394 -0.00365018 -0.