# vtk DataFile Version 3.0
#This file was generated by the deal.II library on 2023/2/27 at 0:39:06
ASCII
DATASET UNSTRUCTURED_GRID

FIELD FieldData 2
CYCLE 1 1 int
22
TIME 1 1 double
0.044
POINTS 3304 double
-1.41421 1.22465e-16 1.41421
-2 0 0
-1.62132 0.707107 1.62132
-2.29289 0.707107 2.80798e-16
-1.62132 0.707107 1.62132
-2.29289 0.707107 2.80798e-16
-2.12132 1 2.12132
-3 1 0
-2.12132 -1 2.12132
-3 -1 0
-1.62132 -0.707107 1.62132
-2.29289 -0.707107 2.80798e-16
-1.62132 -0.707107 1.62132
-2.29289 -0.707107 2.80798e-16
-1.41421 1.22465e-16 1.41421
-2 0 0
-2.82843 0 2.82843
-4 0 0
-2.62132 -0.707107 2.62132
-3.70711 -0.707107 4.5399e-16
-2.62132 -0.707107 2.62132
-3.70711 -0.707107 4.5399e-16
-2.12132 -1 2.12132
-3 -1 0
-2.12132 1 2.12132
-3 1 0
-2.62132 0.707107 2.62132
-3.70711 0.707107 4.5399e-16
-2.62132 0.707107 2.62132
-3.70711 0.707107 4.5399e-16
-2.82843 0 2.82843
-4 0 0
-2 0 0
-1.41421 1.22465e-16 -1.41421
-2.29289 0.707107 2.80798e-16
-1.62132 0.707107 -1.62132
-2.29289 0.707107 2.80798e-16
-1.62132 0.707107 -1.62132
-3 1 0
-2.12132 1 -2.12132
-3 -1 0
-2.12132 -1 -2.12132
-2.29289 -0.707107 2.80798e-16
-1.62132 -0.707107 -1.62132
-2.29289 -0.707107 2.80798e-16
-1.62132 -0.707107 -1.62132
-2 0 0
-1.41421 1.22465e-16 -1.41421
-4 0 0
-2.82843 0 -2.82843
-3.70711 -0.707107 4.5399e-16
-2.62132 -0.707107 -2.62132
-3.70711 -0.707107 4.5399e-16
-2.62132 -0.707107 -2.62132
-3 -1 0
-2.12132 -1 -2.12132
-3 1 0
-2.12132 1 -2.12132
-3.70711 0.707107 4.5399e-16
-2.62132 0.707107 -2.62132
-3.70711 0.707107 4.5399e-16
-2.62132 0.707107 -2.62132
-4 0 0
-2.82843 0 -2.82843
2.82843 0 2.82843
1.53073 0 3.69552
2.7746 -0.382683 2.7746
1.5016 -0.382683 3.62519
2.7746 -0.382683 2.7746
1.5016 -0.382683 3.62519
2.62132 -0.707107 2.62132
1.41865 -0.707107 3.42492
2.62132 -0.707107 2.62132
1.41865 -0.707107 3.42492
2.39192 -0.92388 2.39192
1.2945 -0.92388 3.12519
2.39192 0.92388 2.39192
1.2945 0.92388 3.12519
2.62132 0.707107 2.62132
1.41865 0.707107 3.42492
2.62132 0.707107 2.62132
1.41865 0.707107 3.42492
2.7746 0.382683 2.7746
1.5016 0.382683 3.62519
-1.53073 0 3.69552
-2.82843 0 2.82843
-1.5016 -0.382683 3.62519
-2.7746 -0.382683 2.7746
2.40268e-16 -0.382683 3.92388
-1.5016 -0.382683 3.62519
2.26995e-16 -0.707107 3.70711
-1.41865 -0.707107 3.42492
-1.5016 -0.382683 3.62519
-2.7746 -0.382683 2.7746
-1.41865 -0.707107 3.42492
-2.62132 -0.707107 2.62132
2.26995e-16 -0.707107 3.70711
-1.41865 -0.707107 3.42492
2.0713e-16 -0.92388 3.38268
-1.2945 -0.92388 3.12519
-1.41865 -0.707107 3.42492
-2.62132 -0.707107 2.62132
-1.2945 -0.92388 3.12519
-2.39192 -0.92388 2.39192
2.0713e-16 -0.92388 3.38268
-1.2945 -0.92388 3.12519
0 -1 3
-1.14805 -1 2.77164
-1.2945 -0.92388 3.12519
-2.39192 -0.92388 2.39192
-1.14805 -1 2.77164
-2.12132 -1 2.12132
-1.14805 1 2.77164
-2.12132 1 2.12132
-1.2945 0.92388 3.12519
-2.39192 0.92388 2.39192
2.0713e-16 0.92388 3.38268
-1.2945 0.92388 3.12519
2.26995e-16 0.707107 3.70711
-1.41865 0.707107 3.42492
-1.2945 0.92388 3.12519
-2.39192 0.92388 2.39192
-1.41865 0.707107 3.42492
-2.62132 0.707107 2.62132
0.877452 0.707107 2.11836
1.40399e-16 0.707107 2.29289
1.0016 0.92388 2.41809
1.60264e-16 0.92388 2.61732
1.0016 0.92388 2.41809
1.60264e-16 0.92388 2.61732
1.14805 1 2.77164
0 1 3
1.14805 -1 2.77164
0 -1 3
1.0016 -0.92388 2.41809
1.60264e-16 -0.92388 2.61732
3.12519 -0.92388 1.2945
2.39192 -0.92388 2.39192
2.77164 -1 1.14805
2.12132 -1 2.12132
1.40399e-16 0.707107 2.29289
-0.877452 0.707107 2.11836
1.60264e-16 0.92388 2.61732
-1.0016 0.92388 2.41809
-0.877452 0.707107 2.11836
-1.62132 0.707107 1.62132
-1.0016 0.92388 2.41809
-1.85072 0.92388 1.85072
1.60264e-16 0.92388 2.61732
-1.0016 0.92388 2.41809
0 1 3
-1.14805 1 2.77164
-1.0016 0.92388 2.41809
-1.85072 0.92388 1.85072
-1.14805 1 2.77164
-2.12132 1 2.12132
0 -1 3
-1.14805 -1 2.77164
1.60264e-16 -0.92388 2.61732
-1.0016 -0.92388 2.41809
-1.14805 -1 2.77164
-2.12132 -1 2.12132
-1.0016 -0.92388 2.41809
-1.85072 -0.92388 1.85072
1.60264e-16 -0.92388 2.61732
-1.0016 -0.92388 2.41809
1.40399e-16 -0.707107 2.29289
-0.877452 -0.707107 2.11836
-1.0016 -0.92388 2.41809
-1.85072 -0.92388 1.85072
-0.877452 -0.707107 2.11836
-1.62132 -0.707107 1.62132
2.77164 1 1.14805
2.12132 1 2.12132
3.12519 0.92388 1.2945
2.39192 0.92388 2.39192
3.12519 0.92388 1.2945
2.39192 0.92388 2.39192
3.42492 0.707107 1.41865
2.62132 0.707107 2.62132
3.42492 0.707107 1.41865
2.62132 0.707107 2.62132
3.62519 0.382683 1.5016
2.7746 0.382683 2.7746
3.62519 0.382683 1.5016
2.7746 0.382683 2.7746
3.69552 0 1.53073
2.82843 0 2.82843
-0.765367 1.22465e-16 1.84776
-1.41421 1.22465e-16 1.41421
-0.794497 0.382683 1.91809
-1.46804 0.382683 1.46804
1.27126e-16 0.382683 2.07612
-0.794497 0.382683 1.91809
1.40399e-16 0.707107 2.29289
-0.877452 0.707107 2.11836
-0.794497 0.382683 1.91809
-1.46804 0.382683 1.46804
-0.877452 0.707107 2.11836
-1.62132 0.707107 1.62132
2.26995e-16 0.707107 3.70711
-1.41865 0.707107 3.42492
2.40268e-16 0.382683 3.92388
-1.5016 0.382683 3.62519
-1.41865 0.707107 3.42492
-2.62132 0.707107 2.62132
-1.5016 0.382683 3.62519
-2.7746 0.382683 2.7746
2.40268e-16 0.382683 3.92388
-1.5016 0.382683 3.62519
0 0 4
-1.53073 0 3.69552
-1.5016 0.382683 3.62519
-2.7746 0.382683 2.7746
-1.53073 0 3.69552
-2.82843 0 2.82843
2.11836 0.707107 0.877452
1.62132 0.707107 1.62132
2.41809 0.92388 1.0016
1.85072 0.92388 1.85072
2.41809 0.92388 1.0016
1.85072 0.92388 1.85072
2.77164 1 1.14805
2.12132 1 2.12132
2.77164 -1 1.14805
2.12132 -1 2.12132
2.41809 -0.92388 1.0016
1.85072 -0.92388 1.85072
0.877452 -0.707107 2.11836
1.40399e-16 -0.707107 2.29289
0.794497 -0.382683 1.91809
1.27126e-16 -0.382683 2.07612
0.794497 -0.382683 1.91809
1.27126e-16 -0.382683 2.07612
0.765367 1.22465e-16 1.84776
0 0 2
1.40399e-16 -0.707107 2.29289
-0.877452 -0.707107 2.11836
1.27126e-16 -0.382683 2.07612
-0.794497 -0.382683 1.91809
-0.877452 -0.707107 2.11836
-1.62132 -0.707107 1.62132
-0.794497 -0.382683 1.91809
-1.46804 -0.382683 1.46804
1.27126e-16 -0.382683 2.07612
-0.794497 -0.382683 1.91809
0 0 2
-0.765367 1.22465e-16 1.84776
-0.794497 -0.382683 1.91809
-1.46804 -0.382683 1.46804
-0.765367 1.22465e-16 1.84776
-1.41421 1.22465e-16 1.41421
-6.80984e-16 -0.707107 -3.70711
1.41865 -0.707107 -3.42492
-6.21389e-16 -0.92388 -3.38268
1.2945 -0.92388 -3.12519
-6.21389e-16 0.92388 -3.38268
1.2945 0.92388 -3.12519
-6.80984e-16 0.707107 -3.70711
1.41865 0.707107 -3.42492
-1.41421 1.22465e-16 -1.41421
-0.765367 1.22465e-16 -1.84776
-1.46804 0.382683 -1.46804
-0.794497 0.382683 -1.91809
-0.765367 1.22465e-16 -1.84776
0 0 -2
-0.794497 0.382683 -1.91809
-3.81377e-16 0.382683 -2.07612
-1.46804 0.382683 -1.46804
-0.794497 0.382683 -1.91809
-1.62132 0.707107 -1.62132
-0.877452 0.707107 -2.11836
-0.794497 0.382683 -1.91809
-3.81377e-16 0.382683 -2.07612
-0.877452 0.707107 -2.11836
-4.21198e-16 0.707107 -2.29289
-1.62132 0.707107 -1.62132
-0.877452 0.707107 -2.11836
-1.85072 0.92388 -1.85072
-1.0016 0.92388 -2.41809
-0.877452 0.707107 -2.11836
-4.21198e-16 0.707107 -2.29289
-1.0016 0.92388 -2.41809
-4.80793e-16 0.92388 -2.61732
-1.85072 0.92388 -1.85072
-1.0016 0.92388 -2.41809
-2.12132 1 -2.12132
-1.14805 1 -2.77164
-1.0016 0.92388 -2.41809
-4.80793e-16 0.92388 -2.61732
-1.14805 1 -2.77164
0 1 -3
-2.12132 -1 -2.12132
-1.14805 -1 -2.77164
-1.85072 -0.92388 -1.85072
-1.0016 -0.92388 -2.41809
-1.14805 -1 -2.77164
0 -1 -3
-1.0016 -0.92388 -2.41809
-4.80793e-16 -0.92388 -2.61732
-1.85072 -0.92388 -1.85072
-1.0016 -0.92388 -2.41809
-1.62132 -0.707107 -1.62132
-0.877452 -0.707107 -2.11836
-1.0016 -0.92388 -2.41809
-4.80793e-16 -0.92388 -2.61732
-0.877452 -0.707107 -2.11836
-4.21198e-16 -0.707107 -2.29289
-1.62132 -0.707107 -1.62132
-0.877452 -0.707107 -2.11836
-1.46804 -0.382683 -1.46804
-0.794497 -0.382683 -1.91809
-0.877452 -0.707107 -2.11836
-4.21198e-16 -0.707107 -2.29289
-0.794497 -0.382683 -1.91809
-3.81377e-16 -0.382683 -2.07612
-1.46804 -0.382683 -1.46804
-0.794497 -0.382683 -1.91809
-1.41421 1.22465e-16 -1.41421
-0.765367 1.22465e-16 -1.84776
-0.794497 -0.382683 -1.91809
-3.81377e-16 -0.382683 -2.07612
-0.765367 1.22465e-16 -1.84776
0 0 -2
-2.82843 0 -2.82843
-1.53073 0 -3.69552
-2.7746 -0.382683 -2.7746
-1.5016 -0.382683 -3.62519
-1.53073 0 -3.69552
0 0 -4
-1.5016 -0.382683 -3.62519
-7.20805e-16 -0.382683 -3.92388
-2.7746 -0.382683 -2.7746
-1.5016 -0.382683 -3.62519
-2.62132 -0.707107 -2.62132
-1.41865 -0.707107 -3.42492
-1.5016 -0.382683 -3.62519
-7.20805e-16 -0.382683 -3.92388
-1.41865 -0.707107 -3.42492
-6.80984e-16 -0.707107 -3.70711
-2.62132 -0.707107 -2.62132
-1.41865 -0.707107 -3.42492
-2.39192 -0.92388 -2.39192
-1.2945 -0.92388 -3.12519
-1.41865 -0.707107 -3.42492
-6.80984e-16 -0.707107 -3.70711
-1.2945 -0.92388 -3.12519
-6.21389e-16 -0.92388 -3.38268
-2.39192 -0.92388 -2.39192
-1.2945 -0.92388 -3.12519
-2.12132 -1 -2.12132
-1.14805 -1 -2.77164
-1.2945 -0.92388 -3.12519
-6.21389e-16 -0.92388 -3.38268
-1.14805 -1 -2.77164
0 -1 -3
-2.12132 1 -2.12132
-1.14805 1 -2.77164
-2.39192 0.92388 -2.39192
-1.2945 0.92388 -3.12519
-1.14805 1 -2.77164
0 1 -3
-1.2945 0.92388 -3.12519
-6.21389e-16 0.92388 -3.38268
-2.39192 0.92388 -2.39192
-1.2945 0.92388 -3.12519
-2.62132 0.707107 -2.62132
-1.41865 0.707107 -3.42492
-1.2945 0.92388 -3.12519
-6.21389e-16 0.92388 -3.38268
-1.41865 0.707107 -3.42492
-6.80984e-16 0.707107 -3.70711
-2.62132 0.707107 -2.62132
-1.41865 0.707107 -3.42492
-2.7746 0.382683 -2.7746
-1.5016 0.382683 -3.62519
-1.41865 0.707107 -3.42492
-6.80984e-16 0.707107 -3.70711
-1.5016 0.382683 -3.62519
-7.20805e-16 0.382683 -3.92388
-2.7746 0.382683 -2.7746
-1.5016 0.382683 -3.62519
-2.82843 0 -2.82843
-1.53073 0 -3.69552
-1.5016 0.382683 -3.62519
-7.20805e-16 0.382683 -3.92388
-1.53073 0 -3.69552
0 0 -4
0 0 -4
1.53073 0 -3.69552
-7.20805e-16 -0.382683 -3.92388
1.5016 -0.382683 -3.62519
1.53073 0 -3.69552
2.82843 0 -2.82843
1.5016 -0.382683 -3.62519
2.7746 -0.382683 -2.7746
-7.20805e-16 -0.382683 -3.92388
1.5016 -0.382683 -3.62519
-6.80984e-16 -0.707107 -3.70711
1.41865 -0.707107 -3.42492
1.5016 -0.382683 -3.62519
[...]
POINT_DATA 3304
SCALARS U double 1
LOOKUP_TABLE default
-0.00219496 -0.0021982 -0.00219189 -0.00220621 -0.00219189 -0.00220621 -0.00218274 -0.00222654 -0.00219018 -0.00222451 -0.00220409 -0.00220389 -0.00220409 -0.00220389 -0.00219496 -0.0021982 -0.00217944 -0.00223602 -0.00218487 -0.00222948 -0.00218487 -0.00222948 -0.00219018 -0.00222451 -0.00218274 -0.00222654 -0.00218662 -0.00222933 -0.00218662 -0.00222933 -0.00217944 -0.00223602 -0.0021982 -0.00221351 -0.00220621 -0.00218231 -0.00220621 -0.00218231 -0.00222654 -0.00210933 -0.00222451 -0.00211012 -0.00220389 -0.00218212 -0.00220389 -0.00218212 -0.0021982 -0.00221351 -0.00223602 -0.0020756 -0.00222948 -0.00209606 -0.00222948 -0.00209606 -0.00222451 -0.00211012 -0.00222654 -0.00210933 -0.00222933 -0.00209496 -0.00222933 -0.00209496 -0.00223602 -0.0020756 0.00111101 0.00242244 0.00162079 0.00307897 0.00162079 0.00307897 0.00329389 0.00458284 0.00329389 0.00458284 0.00533586 0.0061024 0.00550831 0.00606805 0.00377788 0.00458548 0.00377788 0.00458548 0.00199279 0.00316212 -0.00225504 -0.00217944 -0.00225162 -0.00218216 -0.00169574 -0.00225162 -0.00163209 -0.00222992 -0.00225162 -0.00218216 -0.00222992 -0.00218487 -0.00163209 -0.00222992 -0.0016221 -0.00221977 -0.00222992 -0.00218487 -0.00221977 -0.00218753 -0.0016221 -0.00221977 -0.00158358 -0.0022144 -0.00221977 -0.00218753 -0.0022144 -0.00219018 -0.00225201 -0.00218274 -0.00224469 -0.00218468 -0.00168042 -0.00224469 -0.00160247 -0.00222124 -0.00224469 -0.00218468 -0.00222124 -0.00218662 0.00529369 -0.00175161 0.00619767 -0.0017115 0.00619767 -0.0017115 0.0068192 -0.00173765 0.00675407 -0.00158358 0.00611939 -0.00161449 0.00632839 0.00533586 0.00663162 0.0075652 -0.00175161 -0.0022431 -0.0017115 -0.00224611 -0.0022431 -0.00219189 -0.00224611 -0.00218732 -0.0017115 -0.00224611 -0.00173765 -0.00225201 -0.00224611 -0.00218732 -0.00225201 -0.00218274 -0.00158358 -0.0022144 -0.00161449 -0.00219888 -0.0022144 -0.00219018 -0.00219888 -0.00219714 -0.00161449 -0.00219888 -0.00199192 -0.00212637 -0.00219888 -0.00219714 -0.00212637 -0.00220409 0.00671007 0.00753533 0.00642497 0.00550831 0.00642497 0.00550831 0.0052441 0.00377788 0.0052441 0.00377788 0.00463495 0.00199279 0.00463495 0.00199279 0.00403353 0.00111101 -0.002186 -0.00219496 -0.00224774 -0.00219343 -0.00168908 -0.00224774 -0.00175161 -0.0022431 -0.00224774 -0.00219343 -0.0022431 -0.00219189 -0.00160247 -0.00222124 -0.00166363 -0.00223405 -0.00222124 -0.00218662 -0.00223405 -0.00218303 -0.00166363 -0.00223405 -0.00171221 -0.00225504 -0.00223405 -0.00218303 -0.00225504 -0.00217944 0.00609651 0.0105656 0.00630839 0.00976801 0.00630839 0.00976801 0.00671007 0.00753533 0.00663162 0.0075652 0.00637476 0.00998855 0.00506199 -0.00199192 0.00427545 -0.00210444 0.00427545 -0.00210444 0.00414926 -0.00196813 -0.00199192 -0.00212637 -0.00210444 -0.00210655 -0.00212637 -0.00220409 -0.00210655 -0.00219953 -0.00210444 -0.00210655 -0.00196813 -0.002186 -0.00210655 -0.00219953 -0.002186 -0.00219496 -0.00327993 0.00490306 -0.00318375 0.00521279 -0.00318679 0.00521719 -0.00328453 0.00490977 -0.00221351 -0.0021939 -0.00219791 -0.00221471 -0.0021939 -0.00209006 -0.00221471 -0.00212737 -0.00219791 -0.00221471 -0.00218231 -0.00223829 -0.00221471 -0.00212737 -0.00223829 -0.00218429 -0.00218231 -0.00223829 -0.00214582 -0.00226474 -0.00223829 -0.00218429 -0.00226474 -0.00245061 -0.00214582 -0.00226474 -0.00210933 -0.00233768 -0.00226474 -0.00245061 -0.00233768 -0.00253012 -0.00211012 -0.00233746 -0.00214612 -0.00226531 -0.00233746 -0.00252881 -0.00226531 -0.00245122 -0.00214612 -0.00226531 -0.00218212 -0.00223957 -0.00226531 -0.00245122 -0.00223957 -0.00218662 -0.00218212 -0.00223957 -0.00219782 -0.0022154 -0.00223957 -0.00218662 -0.0022154 -0.00212862 -0.00219782 -0.0022154 -0.00221351 -0.0021939 -0.0022154 -0.00212862 -0.0021939 -0.00209006 -0.0020756 -0.00226491 -0.00208583 -0.00226383 -0.00226491 -0.00326823 -0.00226383 -0.00322662 -0.00208583 -0.00226383 -0.00209606 -0.00223582 -0.00226383 -0.00322662 -0.00223582 -0.00327993 -0.00209606 -0.00223582 -0.00210309 -0.00222 -0.00223582 -0.00327993 -0.00222 -0.00318375 -0.00210309 -0.00222 -0.00211012 -0.00233746 -0.00222 -0.00318375 -0.00233746 -0.00252881 -0.00210933 -0.00233768 -0.00210215 -0.00222104 -0.00233768 -0.00253012 -0.00222104 -0.00318679 -0.00210215 -0.00222104 -0.00209496 -0.00223757 -0.00222104 -0.00318679 -0.00223757 -0.00328453 -0.00209496 -0.00223757 -0.00208528 -0.00226475 -0.00223757 -0.00328453 -0.00226475 -0.00322905 -0.00208528 -0.00226475 -0.0020756 -0.00226491 -0.00226475 -0.00322905 -0.00226491 -0.00326823 -0.00326823 0.00337174 -0.00322662 0.00349663 0.00337174 0.00165968 0.00349663 0.00213931 -0.00322662 0.00349663 -0.00327993 0.00490306 0.00349663 0.00213931 0.00490306 0.00289672 -0.00328453 0.00490977 -0.00322905 0.00350018 0.00490977 0.00291349 0.00350018 0.00214837 -0.00322905 0.00350018 -0.00326823 0.00337174 0.00350018 0.00214837 0.00337174 0.00165968 0.00606805 0.00283429 0.00532676 0.00297384 0.00283429 -0.00168042 0.00297384 -0.00164144 0.00532676 0.00297384 0.00458548 0.00299708 0.00297384 -0.00164144 0.00299708 -0.00160247 -0.00171221 -0.00198363 -0.00165983 -0.00215032 -0.00198363 -0.00225504 -0.00215032 -0.00225333 -0.00165983 -0.00215032 -0.00169574 -0.00197368 -0.00215032 -0.00225333 -0.00197368 -0.00225162 -0.00173765 -0.00199483 -0.00168456 -0.00202967 -0.00199483 -0.00225201 -0.00202967 -0.00224835 -0.00168456 -0.00202967 -0.00168042 -0.00196255 -0.00202967 -0.00224835 -0.00196255 -0.00224469 0.0061024 0.0028162 0.00655277 0.0026945 0.0028162 -0.0016221 0.0026945 -0.00160284 0.00655277 0.0026945 0.00675407 0.00258525 0.0026945 -0.00160284 0.00258525 -0.00158358 0.00242244 0.00315399 0.0027507 0.00303563 0.0027507 0.00303563 0.00307897 0.00303014 -0.000621333 0.00212447 -0.000586938 0.00182406 0.00212447 0.00463495 0.00182406 0.00433424 -0.000586938 0.00182406 -0.000559353 0.00173588 0.00182406 0.00433424 0.00173588 0.00403353 0.00753533 0.00783403 0.00652182 0.00678846 0.00783403 0.0068192 0.00678846 0.0065799 0.00652182 0.00678846 0.00550831 0.00578818 0.00678846 0.0065799 0.00578818 0.00606805 -0.00196813 -0.00207707 -0.00175984 -0.00209604 -0.00207707 -0.002186 -0.00209604 -0.00221687 -0.00175984 -0.00209604 -0.00168908 -0.00196841 -0.00209604 -0.00221687 -0.00196841 -0.00224774 0.00307897 0.00303014 0.0038309 0.00305031 0.00303014 -0.00169574 0.00305031 -0.00166392 0.0038309 0.00305031 0.00458284 0.00306558 0.00305031 -0.00166392 0.00306558 -0.00163209 -0.000909429 0.00369412 -0.000586518 0.00413006 0.00369412 0.00504637 0.00413006 0.00575371 -0.000586518 0.00413006 -0.000344056 0.00444324 0.00413006 0.00575371 0.00444324 0.00632839 0.00458284 0.00306558 0.00534262 0.00298832 0.00306558 -0.00163209 0.00298832 -0.0016271 0.00534262 0.00298832 0.0061024 0.0028162 0.00298832 -0.0016271 0.0028162 -0.0016221 0.0068192 0.00254077 0.0065799 0.00264043 0.00254077 -0.00173765 0.00264043 -0.00168456 0.0065799 0.00264043 0.00606805 0.00283429 0.00264043 -0.00168456 0.00283429 -0.00168042 0.00414926 0.00109056 0.00436454 0.00121062 0.00109056 -0.00196813 0.00121062 -0.00175984 0.00436454 0.00121062 0.00460786 0.00140015 0.00121062 -0.00175984 0.00140015 -0.00168908 0.00458548 0.00299708 0.0038738 0.00301801 0.00299708 -0.00160247 0.00301801 -0.00163305 0.0038738 0.00301801 0.00316212 0.00308121 0.00301801 -0.00163305 0.00308121 -0.00166363 -0.000344056 0.00444324 -0.000328778 0.00433359 0.00444324 0.00632839 0.00433359 0.00648 -0.000328778 0.00433359 -0.000583419 0.00358781 0.00433359 0.00648 0.00358781 0.00663162 0.00460786 0.00140015 0.00494486 0.00155313 0.00140015 -0.00168908 0.00155313 -0.00172034 0.00494486 0.00155313 0.00529369 0.00177104 0.00155313 -0.00172034 0.00177104 -0.00175161 -0.000594649 0.00361692 -0.000348309 0.00440236 0.00361692 0.00671007 0.00440236 0.00656752 -0.000348309 0.00440236 -0.000391911 0.00453514 0.00440236 0.00656752 0.00453514 0.00642497 -0.000559353 0.00173588 -0.000691467 0.00168714 0.00173588 0.00403353 0.00168714 0.00413684 -0.000691467 0.00168714 -0.000840895 0.00191717 0.00168714 0.00413684 0.00191717 0.00430316 -0.000391911 0.00453514 -0.000545488 0.00418528 0.00453514 0.00642497 0.00418528 0.00583453 -0.000545488 0.00418528 -0.000527971 0.00364519 0.00418528 0.00583453 0.00364519 0.0052441 0.00403353 0.00257227 0.00413684 0.002736 0.00257227 0.00111101 0.002736 0.0013659 0.00413684 0.002736 0.00430316 0.0029588 0.002736 0.0013659 0.0029588 0.00162079 0.00316212 0.00308121 0.00264183 0.00313473 0.00308121 -0.00166363 0.00313473 -0.00168792 0.00313473 -0.00168792 0.00315399 -0.00171221 0.0094736 0.00611939 0.00943941 0.00567577 0.00943941 0.00567577 0.00887798 0.00506199 0.00165968 0.00243532 0.0018995 0.00276444 0.00243532 0.00342173 0.00276444 0.00387588 0.0018995 0.00276444 0.00213931 0.00325638 0.00276444 0.00387588 0.00325638 0.00446909 0.00342173 0.0014143 0.00387588 0.00157497 0.0014143 -0.000559353 0.00157497 -0.000691467 0.00387588 0.00157497 0.00446909 0.0017954 0.00157497 -0.000691467 0.0017954 -0.000840895 0.00533586 0.00571913 0.00645053 0.00678624 0.00571913 0.0061024 0.00678624 0.00655277 0.00645053 0.00678624 0.0075652 0.00787885 0.00678624 0.00655277 0.00787885 0.00675407 0.00364519 0.0052441 0.00294457 0.00493952 0.00294457 0.00493952 0.00212447 0.00463495 0.00213931 0.00325638 0.00251801 0.00349738 0.00325638 0.00446909 0.00349738 0.0047384 0.00251801 0.00349738 0.00289672 0.00397359 0.00349738 0.0047384 0.00397359 0.00495278 0.00446909 0.0017954 0.0047384 0.00187697 0.0017954 -0.000840895 0.00187697 -0.000895822 0.0047384 0.00187697 0.00495278 0.00189436 0.00187697 -0.000895822 0.00189436 -0.000909429 0.00199279 0.00257745 0.0015519 0.00193472 0.00257745 0.00316212 0.00193472 0.00264183 0.0015519 0.00193472 0.00111101 0.00176673 0.00193472 0.00264183 0.00176673 0.00242244 0.0105656 0.00901879 0.0101668 0.00949085 0.00901879 0.00529369 0.00949085 0.00574568 0.0101668 0.00949085 0.00976801 0.00931875 0.00949085 0.00574568 0.00931875 0.00619767 0.00976801 0.00931875 0.00865167 0.00877552 0.00931875 0.00619767 0.00877552 0.00650843 0.00865167 0.00877552 0.00753533 0.00783403 0.00877552 0.00650843 0.00783403 0.0068192 0.0075652 0.00787885 0.00877688 0.00889953 0.00787885 0.00675407 0.00889953 0.00643673 0.00877688 0.00889953 0.00998855 0.0094736 0.00889953 0.00643673 0.0094736 0.00611939 0.00611939 0.00225245 0.00567577 0.00166429 0.00225245 -0.00161449 0.00166429 -0.00180321 0.00567577 0.00166429 0.00506199 0.00153503 0.00166429 -0.00180321 0.00153503 -0.00199192 0.00291349 0.00396769 0.00253093 0.00348833 0.00396769 0.00491313 0.00348833 0.00468756 0.00253093 0.00348833 0.00214837 0.00323743 0.00348833 0.00468756 0.00323743 0.00442229 0.00214837 0.00323743 0.00190403 0.00275297 0.00323743 0.00442229 0.00275297 0.00385017 0.00190403 0.00275297 0.00165968 0.00243532 0.00275297 0.00385017 0.00243532 0.00342173 0.00442229 0.00183558 0.00385017 0.00161839 0.00183558 -0.000621333 0.00161839 -0.000586938 0.00385017 0.00161839 0.00342173 0.0014143 0.00161839 -0.000586938 0.0014143 -0.000559353 -0.00209006 -0.00276361 -0.00210872 -0.00281308 -0.00276361 -0.000276498 -0.00281308 -0.000343997 -0.00210872 -0.00281308 -0.00212737 -0.00285527 -0.00281308 -0.000343997 -0.00285527 -0.000341477 0.00504637 0.00376579 0.00575371 0.00478944 0.00376579 0.00329389 0.00478944 0.00431488 0.00575371 0.00478944 0.00632839 0.00583212 0.00478944 0.00431488 0.00583212 0.00533586 -0.000276498 0.00737238 -0.000343997 0.00709487 0.00737238 0.0114518 0.00709487 0.01181 -0.000343997 0.00709487 -0.000341477 0.00697128 0.00709487 0.01181 0.00697128 0.0118034 -0.00212737 -0.00285527 -0.00215583 -0.0028206 -0.00285527 -0.000341477 -0.0028206 0.00170082 -0.00215583 -0.0028206 -0.00218429 -0.00270153 -0.0028206 0.00170082 -0.00270153 0.00206624 -0.000341477 0.00697128 0.00170082 0.0070172 0.00697128 0.0118034 0.0070172 0.0121996 0.00170082 0.0070172 0.00206624 0.00743795 0.0070172 0.0121996 0.00743795 0.0123187 0.00691396 0.00414926 0.00709665 0.00436454 0.00709665 0.00436454 0.00752002 0.00460786 0.00752002 0.00460786 0.00826157 0.00494486 0.0103083 0.00826157 0.0105656 0.00901879 0.00826157 0.00494486 0.00901879 0.00529369 0.00430316 0.0029588 0.00451401 0.00311514 0.0029588 0.00162079 0.00311514 0.00245734 0.00311514 0.00245734 0.00376579 0.00329389 0.00217878 0.00609651 0.00188532 0.00620245 0.00188532 0.00620245 0.00191802 0.00630839 -0.00218429 -0.00270153 -0.00231745 -0.00167831 -0.00270153 0.00206624 -0.00167831 0.00274981 -0.00231745 -0.00167831 -0.00245061 -0.00136857 -0.00167831 0.00274981 -0.00136857 0.00399758 0.00191802 0.00630839 0.00262129 0.00650923 0.00262129 0.00650923 0.00361692 0.00671007 0.00206624 0.00743795 0.00274981 0.00755191 0.00743795 0.0123187 0.00755191 0.0109776 0.00274981 0.00755191 0.00399758 0.00744493 0.00755191 0.0109776 0.00744493 0.0101696 0.00358781 0.00663162 0.00259687 0.00650319 0.00259687 0.00650319 0.00188182 0.00637476 -0.00245061 -0.00136857 -0.00249037 -0.00116508 -0.00136857 0.00399758 -0.00116508 0.00467741 -0.00249037 -0.00116508 -0.00253012 -0.00102497 -0.00116508 0.00467741 -0.00102497 0.00514883 0.00188182 0.00637476 0.00188353 0.00621316 0.00188353 0.00621316 0.00219066 0.00611591 0.00637476 0.00818165 0.00621316 0.00928361 0.00818165 0.00998855 0.00928361 0.0105189 0.00621316 0.00928361 0.00611591 0.00920429 0.00928361 0.0105189 0.00920429 0.0106496 0.0106496 0.00887798 0.0103473 0.00803209 0.00887798 0.00506199 0.00803209 0.00466872 0.00803209 0.00466872 0.0073102 0.00427545 0.00399758 0.00744493 0.00467741 0.00707838 0.00744493 0.0101696 0.00707838 0.0099088 0.00467741 0.00707838 0.00514883 0.00691188 0.00707838 0.0099088 0.00691188 0.00898001 0.0073102 0.00427545 0.00696147 0.00421235 0.00696147 0.00421235 0.00691396 0.00414926 -0.00252881 -0.00102511 -0.00249002 -0.001165 -0.00102511 0.00514724 -0.001165 0.0046772 -0.00249002 -0.001165 -0.00245122 -0.00136827 -0.001165 0.0046772 -0.00136827 0.00399878 0.00514724 0.0069091 0.0046772 0.007078 0.0069091 0.00897628 0.007078 0.0099081 0.0046772 0.007078 0.00399878 0.00744688 0.007078 0.0099081 0.00744688 0.0101722 0.00291249 0.00451401 0.00369412 0.00504637 -0.000993655 0.00149505 -0.000988777 0.00165036 0.00149505 0.00439008 0.00165036 0.00456915 -0.000988777 0.00165036 -0.000965463 0.00202023 0.00165036 0.00456915 0.00202023 0.00507679 0.00439008 0.00755395 0.00456915 0.00770156 0.00755395 0.00956784 0.00770156 0.00969755 0.00456915 0.00770156 0.00507679 0.0081141 0.00770156 0.00969755 0.0081141 0.00993914 -0.000965463 0.00202023 -0.000916313 0.00229875 0.00202023 0.00507679 0.00229875 0.00564758 -0.000916313 0.00229875 -0.000982248 0.00217878 0.00229875 0.00564758 0.00217878 0.00609651 0.00507679 0.0081141 0.00564758 0.00853276 0.0081141 0.00993914 0.00853276 0.0103083 0.00564758 0.00853276 0.00609651 0.00833107 0.00853276 0.0103083 0.00833107 0.0105656 -0.00101442 0.00219066 -0.000939939 0.00230677 0.00219066 0.00611591 0.00230677 0.00573774 -0.000939939 0.00230677 -0.000981899 0.00203584 0.00230677 0.00573774 0.00203584 0.00513073 0.00611591 0.00920429 0.00573774 0.0086751 0.00920429 0.0106496 0.0086751 0.0103473 0.00573774 0.0086751 0.00513073 0.00817765 0.0086751 0.0103473 0.00817765 0.00995459 -0.000981899 0.00203584 -0.000996707 0.00165949 0.00203584 0.00513073 0.00165949 0.00459908 -0.000996707 0.00165949 -0.000993655 0.00149505 0.00165949 0.00459908 0.00149505 0.00439008 0.00513073 0.00817765 0.00459908 0.00775095 0.00817765 0.00995459 0.00775095 0.00970463 0.00459908 0.00775095 0.00439008 0.00755395 0.00775095 0.00970463 0.00755395 0.00956784 0.00450099 4.23834e-05 0.00532057 0.000732648 4.23834e-05 -0.000982248 0.000732648 -0.000910682 0.00532057 0.000732648 0.00628374 0.00113163 0.000732648 -0.000910682 0.00113163 -0.000845957 0.00113163 -0.000845957 0.00112564 -0.000736716 0.00112564 -0.000736716 0.000729196 -0.000594649 0.000741826 -0.000583419 0.00112456 -0.000736111 0.00112456 -0.000736111 0.00112166 -0.000862125 0.00627923 0.00112166 0.00530895 0.00071136 0.00112166 -0.000862125 0.00071136 -0.000936471 0.00530895 0.00071136 0.00448684 1.75291e-05 0.00071136 -0.000936471 1.75291e-05 -0.00101442 -0.00245122 -0.00136827 -0.00231892 -0.00167774 -0.00136827 0.00399878 -0.00167774 0.00275259 -0.00231892 -0.00167774 -0.00218662 -0.00270069 -0.00167774 0.00275259 -0.00270069 0.00207019 0.00399878 0.00744688 0.00275259 0.00755652 0.00744688 0.0101722 0.00755652 0.0109834 0.00275259 0.00755652 0.00207019 0.00744453 0.00755652 0.0109834 0.00744453 0.012327 -0.00218662 -0.00270069 -0.00215762 -0.00281985 -0.00270069 0.00207019 -0.00281985 0.00170429 -0.00215762 -0.00281985 -0.00212862 -0.00285466 -0.00281985 0.00170429 -0.00285466 -0.000339027 0.00207019 0.00744453 0.00170429 0.00702296 0.00744453 0.012327 0.00702296 0.0122068 0.00170429 0.00702296 -0.000339027 0.00697536 0.00702296 0.0122068 0.00697536 0.0118084 -0.00212862 -0.00285466 -0.00210934 -0.00281277 -0.00285466 -0.000339027 -0.00281277 -0.000342737 -0.00210934 -0.00281277 -0.00209006 -0.00276361 -0.00281277 -0.000342737 -0.00276361 -0.000276498 -0.000339027 0.00697536 -0.000342737 0.00709697 0.00697536 0.0118084 0.00709697 0.0118125 -0.000342737 0.00709697 -0.000276498 0.00737238 0.00709697 0.0118125 0.00737238 0.0114518 0.00490306 0.00389989 0.00505792 0.00504806 0.00389989 0.00289672 0.00504806 0.00440854 0.00505792 0.00504806 0.00521279 0.00540843 0.00504806 0.00440854 0.00540843 0.00520494 0.0101696 0.0110257 0.0099088 0.00873643 0.0099081 0.00873674 0.0101722 0.0110244 0.00766233 0.00380921 0.00756834 0.00382477 0.00380921 -0.000201918 0.00382477 -0.000219031 0.00382477 -0.000219031 0.00371063 -0.000237237 0.00756731 0.00381978 0.00766233 0.00380921 0.00370104 -0.000253776 0.00381978 -0.000227602 0.00381978 -0.000227602 0.00380921 -0.000201918 0.00495278 0.00189436 0.00534336 0.00161446 0.00520494 0.00566284 0.00677808 0.00727833 0.00678523 0.00727794 0.00521554 0.00565698 0.00491313 0.00188444 0.00468756 0.00184007 0.00468756 0.00184007 0.00442229 0.00183558 -0.00318375 0.00101452 -0.00285628 0.000252305 0.00101452 0.00521279 0.000252305 0.0052064 -0.00285628 0.000252305 -0.00252881 -0.00102511 0.000252305 0.0052064 -0.00102511 0.00514724 0.00521279 0.00540843 0.0052064 0.00633712 0.00540843 0.00520494 0.00633712 0.00677808 0.0052064 0.00633712 0.00514724 0.0069091 0.00633712 0.00677808 0.0069091 0.00897628 -0.00253012 -0.00102497 -0.00285846 0.00025272 -0.00102497 0.00514883 0.00025272 0.00520941 -0.00285846 0.00025272 -0.00318679 0.0010152 0.00025272 0.00520941 0.0010152 0.00521719 0.00514883 0.00691188 0.00520941 0.00634237 0.00691188 0.00898001 0.00634237 0.00678523 0.00520941 0.00634237 0.00521719 0.00541616 0.00634237 0.00678523 0.00541616 0.00521554 0.00521719 0.00541616 0.00506348 0.00505856 0.00541616 0.00521554 0.00505856 0.0044227 0.00506348 0.00505856 0.00490977 0.00391163 0.00505856 0.0044227 0.00391163 0.00291349 0.00315399 0.000720887 0.00309481 0.000723283 0.000720887 -0.00171221 0.000723283 -0.00168602 0.00309481 0.000723283 0.00303563 0.000702967 0.000723283 -0.00168602 0.000702967 -0.00165983 0.00303563 0.000702967 0.00303289 0.000682665 0.000702967 -0.00165983 0.000682665 -0.00167779 0.00303289 0.000682665 0.00303014 0.000667199 0.000682665 -0.00167779 0.000667199 -0.00169574 0.00264183 0.00288828 0.00253214 0.00285135 0.00288828 0.00313473 0.00285135 0.00314436 0.00253214 0.00285135 0.00242244 0.00278821 0.00285135 0.00314436 0.00278821 0.00315399 0.00998855 0.00973108 0.0102537 0.0100129 0.00973108 0.0094736 0.0100129 0.00945651 0.0102537 0.0100129 0.0105189 0.0100751 0.0100129 0.00945651 0.0100751 0.00943941 0.0105189 0.0100751 0.0105843 0.0100354 0.0100751 0.00943941 0.0100354 0.00915869 0.0105843 0.0100354 0.0106496 0.0097638 0.0100354 0.00915869 0.0097638 0.00887798 -0.000527971 0.00155861 -0.000472259 0.00135271 0.00155861 0.00364519 0.00135271 0.00329488 -0.000472259 0.00135271 -0.000484055 0.00113687 0.00135271 0.00329488 0.00113687 0.00294457 -0.000484055 0.00113687 -0.000529161