# vtk DataFile Version 3.0
#This file was generated by the deal.II library on 2023/3/2 at 23:10:52
ASCII
DATASET UNSTRUCTURED_GRID

FIELD FieldData 2
CYCLE 1 1 int
249
TIME 1 1 double
0.498
POINTS 26188 double
2 0 0
1.99037 1.22465e-16 0.196034
2.00482 0.0980171 0
1.99516 0.0980171 0.196506
1.99037 1.22465e-16 0.196034
1.96157 1.22465e-16 0.390181
1.99516 0.0980171 0.196506
1.96629 0.0980171 0.39112
2.00482 0.0980171 0
1.99516 0.0980171 0.196506
2.01921 0.19509 0
2.00949 0.19509 0.197918
1.99516 0.0980171 0.196506
1.96629 0.0980171 0.39112
2.00949 0.19509 0.197918
1.98042 0.19509 0.393929
1.96157 1.22465e-16 0.390181
1.91388 1.22465e-16 0.580569
1.96629 0.0980171 0.39112
1.91849 0.0980171 0.581967
1.91388 1.22465e-16 0.580569
1.84776 1.22465e-16 0.765367
1.91849 0.0980171 0.581967
1.85221 0.0980171 0.76721
1.96629 0.0980171 0.39112
1.91849 0.0980171 0.581967
1.98042 0.19509 0.393929
1.93227 0.19509 0.586147
1.91849 0.0980171 0.581967
1.85221 0.0980171 0.76721
1.93227 0.19509 0.586147
1.86551 0.19509 0.77272
2.01921 0.19509 0
2.00949 0.19509 0.197918
2.04306 0.290285 0
2.03322 0.290285 0.200255
2.00949 0.19509 0.197918
1.98042 0.19509 0.393929
2.03322 0.290285 0.200255
2.0038 0.290285 0.398581
2.04306 0.290285 0
2.03322 0.290285 0.200255
2.07612 0.382683 0
2.06612 0.382683 0.203495
2.03322 0.290285 0.200255
2.0038 0.290285 0.398581
2.06612 0.382683 0.203495
2.03623 0.382683 0.405031
1.98042 0.19509 0.393929
1.93227 0.19509 0.586147
2.0038 0.290285 0.398581
1.95509 0.290285 0.593069
1.93227 0.19509 0.586147
1.86551 0.19509 0.77272
1.95509 0.290285 0.593069
1.88754 0.290285 0.781845
2.0038 0.290285 0.398581
1.95509 0.290285 0.593069
2.03623 0.382683 0.405031
1.98672 0.382683 0.602666
1.95509 0.290285 0.593069
1.88754 0.290285 0.781845
1.98672 0.382683 0.602666
1.91809 0.382683 0.794497
1.84776 1.22465e-16 0.765367
1.76384 1.22465e-16 0.942793
1.85221 0.0980171 0.76721
1.76809 0.0980171 0.945063
1.76384 1.22465e-16 0.942793
1.66294 1.22465e-16 1.11114
1.76809 0.0980171 0.945063
1.66694 0.0980171 1.11382
1.85221 0.0980171 0.76721
1.76809 0.0980171 0.945063
1.86551 0.19509 0.77272
1.78079 0.19509 0.951851
1.76809 0.0980171 0.945063
1.66694 0.0980171 1.11382
1.78079 0.19509 0.951851
1.67892 0.19509 1.12182
1.66294 1.22465e-16 1.11114
1.54602 1.22465e-16 1.26879
1.66694 0.0980171 1.11382
1.54974 0.0980171 1.27184
1.54602 1.22465e-16 1.26879
1.41421 1.22465e-16 1.41421
1.54974 0.0980171 1.27184
1.41762 0.0980171 1.41762
1.66694 0.0980171 1.11382
1.54974 0.0980171 1.27184
1.67892 0.19509 1.12182
1.56087 0.19509 1.28098
1.54974 0.0980171 1.27184
1.41762 0.0980171 1.41762
1.56087 0.19509 1.28098
1.4278 0.19509 1.4278
1.86551 0.19509 0.77272
1.78079 0.19509 0.951851
1.88754 0.290285 0.781845
1.80182 0.290285 0.963092
1.78079 0.19509 0.951851
1.67892 0.19509 1.12182
1.80182 0.290285 0.963092
1.69874 0.290285 1.13506
1.88754 0.290285 0.781845
1.80182 0.290285 0.963092
1.91809 0.382683 0.794497
1.83097 0.382683 0.978676
1.80182 0.290285 0.963092
1.69874 0.290285 1.13506
1.83097 0.382683 0.978676
1.72623 0.382683 1.15343
1.67892 0.19509 1.12182
1.56087 0.19509 1.28098
1.69874 0.290285 1.13506
1.57931 0.290285 1.2961
1.56087 0.19509 1.28098
1.4278 0.19509 1.4278
1.57931 0.290285 1.2961
1.44466 0.290285 1.44466
1.69874 0.290285 1.13506
1.57931 0.290285 1.2961
1.72623 0.382683 1.15343
1.60486 0.382683 1.31708
1.57931 0.290285 1.2961
1.44466 0.290285 1.44466
1.60486 0.382683 1.31708
1.46804 0.382683 1.46804
2.07612 0.382683 0
2.06612 0.382683 0.203495
2.11808 0.471397 0
2.10788 0.471397 0.207608
2.06612 0.382683 0.203495
2.03623 0.382683 0.405031
2.10788 0.471397 0.207608
2.07738 0.471397 0.413217
2.11808 0.471397 0
2.10788 0.471397 0.207608
2.16853 0.55557 0
2.15809 0.55557 0.212553
2.10788 0.471397 0.207608
2.07738 0.471397 0.413217
2.15809 0.55557 0.212553
2.12686 0.55557 0.423059
2.03623 0.382683 0.405031
1.98672 0.382683 0.602666
2.07738 0.471397 0.413217
2.02687 0.471397 0.614846
1.98672 0.382683 0.602666
1.91809 0.382683 0.794497
2.02687 0.471397 0.614846
1.95685 0.471397 0.810554
2.07738 0.471397 0.413217
2.02687 0.471397 0.614846
2.12686 0.55557 0.423059
2.07515 0.55557 0.629491
2.02687 0.471397 0.614846
1.95685 0.471397 0.810554
2.07515 0.55557 0.629491
2.00346 0.55557 0.829861
2.16853 0.55557 0
2.15809 0.55557 0.212553
2.22699 0.634393 0
2.21627 0.634393 0.218283
2.15809 0.55557 0.212553
2.12686 0.55557 0.423059
2.21627 0.634393 0.218283
2.1842 0.634393 0.434464
2.22699 0.634393 0
2.21627 0.634393 0.218283
2.29289 0.707107 0
2.28185 0.707107 0.224743
2.21627 0.634393 0.218283
2.1842 0.634393 0.434464
2.28185 0.707107 0.224743
2.24884 0.707107 0.447321
2.12686 0.55557 0.423059
2.07515 0.55557 0.629491
2.1842 0.634393 0.434464
2.1311 0.634393 0.646461
2.07515 0.55557 0.629491
2.00346 0.55557 0.829861
2.1311 0.634393 0.646461
2.05747 0.634393 0.852232
2.1842 0.634393 0.434464
2.1311 0.634393 0.646461
2.24884 0.707107 0.447321
2.19416 0.707107 0.665592
2.1311 0.634393 0.646461
2.05747 0.634393 0.852232
2.19416 0.707107 0.665592
2.11836 0.707107 0.877452
1.91809 0.382683 0.794497
1.83097 0.382683 0.978676
1.95685 0.471397 0.810554
1.86798 0.471397 0.998455
1.83097 0.382683 0.978676
1.72623 0.382683 1.15343
1.86798 0.471397 0.998455
1.76112 0.471397 1.17674
1.95685 0.471397 0.810554
1.86798 0.471397 0.998455
2.00346 0.55557 0.829861
1.91247 0.55557 1.02224
1.86798 0.471397 0.998455
1.76112 0.471397 1.17674
1.91247 0.55557 1.02224
1.80307 0.55557 1.20477
1.72623 0.382683 1.15343
1.60486 0.382683 1.31708
1.76112 0.471397 1.17674
1.6373 0.471397 1.34369
1.60486 0.382683 1.31708
1.46804 0.382683 1.46804
1.6373 0.471397 1.34369
1.49771 0.471397 1.49771
1.76112 0.471397 1.17674
1.6373 0.471397 1.34369
1.80307 0.55557 1.20477
1.6763 0.55557 1.3757
1.6373 0.471397 1.34369
1.49771 0.471397 1.49771
1.6763 0.55557 1.3757
1.53338 0.55557 1.53338
2.00346 0.55557 0.829861
1.91247 0.55557 1.02224
2.05747 0.634393 0.852232
1.96403 0.634393 1.0498
1.91247 0.55557 1.02224
1.80307 0.55557 1.20477
1.96403 0.634393 1.0498
1.85167 0.634393 1.23725
2.05747 0.634393 0.852232
1.96403 0.634393 1.0498
2.11836 0.707107 0.877452
2.02215 0.707107 1.08086
1.96403 0.634393 1.0498
1.85167 0.634393 1.23725
2.02215 0.707107 1.08086
1.90647 0.707107 1.27386
1.80307 0.55557 1.20477
1.6763 0.55557 1.3757
1.85167 0.634393 1.23725
1.72149 0.634393 1.41279
1.6763 0.55557 1.3757
1.53338 0.55557 1.53338
1.72149 0.634393 1.41279
1.57472 0.634393 1.57472
1.85167 0.634393 1.23725
1.72149 0.634393 1.41279
1.90647 0.707107 1.27386
1.77243 0.707107 1.4546
1.72149 0.634393 1.41279
1.57472 0.634393 1.57472
1.77243 0.707107 1.4546
1.62132 0.707107 1.62132
1.41421 1.22465e-16 1.41421
1.26879 1.22465e-16 1.54602
1.41762 0.0980171 1.41762
1.27184 0.0980171 1.54974
1.26879 1.22465e-16 1.54602
1.11114 1.22465e-16 1.66294
1.27184 0.0980171 1.54974
1.11382 0.0980171 1.66694
1.41762 0.0980171 1.41762
1.27184 0.0980171 1.54974
1.4278 0.19509 1.4278
1.28098 0.19509 1.56087
1.27184 0.0980171 1.54974
1.11382 0.0980171 1.66694
1.28098 0.19509 1.56087
1.12182 0.19509 1.67892
1.11114 1.22465e-16 1.66294
0.942793 1.22465e-16 1.76384
1.11382 0.0980171 1.66694
0.945063 0.0980171 1.76809
0.942793 1.22465e-16 1.76384
0.765367 1.22465e-16 1.84776
0.945063 0.0980171 1.76809
0.76721 0.0980171 1.85221
1.11382 0.0980171 1.66694
0.945063 0.0980171 1.76809
1.12182 0.19509 1.67892
0.951851 0.19509 1.78079
0.945063 0.0980171 1.76809
0.76721 0.0980171 1.85221
0.951851 0.19509 1.78079
0.77272 0.19509 1.86551
1.4278 0.19509 1.4278
1.28098 0.19509 1.56087
1.44466 0.290285 1.44466
1.2961 0.290285 1.57931
1.28098 0.19509 1.56087
1.12182 0.19509 1.67892
1.2961 0.290285 1.57931
1.13506 0.290285 1.69874
1.44466 0.290285 1.44466
1.2961 0.290285 1.57931
1.46804 0.382683 1.46804
1.31708 0.382683 1.60486
1.2961 0.290285 1.57931
1.13506 0.290285 1.69874
1.31708 0.382683 1.60486
1.15343 0.382683 1.72623
1.12182 0.19509 1.67892
0.951851 0.19509 1.78079
1.13506 0.290285 1.69874
0.963092 0.290285 1.80182
0.951851 0.19509 1.78079
0.77272 0.19509 1.86551
0.963092 0.290285 1.80182
0.781845 0.290285 1.88754
1.13506 0.290285 1.69874
0.963092 0.290285 1.80182
1.15343 0.382683 1.72623
0.978676 0.382683 1.83097
0.963092 0.290285 1.80182
0.781845 0.290285 1.88754
0.978676 0.382683 1.83097
0.794497 0.382683 1.91809
0.765367 1.22465e-16 1.84776
0.580569 1.22465e-16 1.91388
0.76721 0.0980171 1.85221
0.581967 0.0980171 1.91849
0.580569 1.22465e-16 1.91388
0.390181 1.22465e-16 1.96157
0.581967 0.0980171 1.91849
0.39112 0.0980171 1.96629
0.76721 0.0980171 1.85221
0.581967 0.0980171 1.91849
0.77272 0.19509 1.86551
0.586147 0.19509 1.93227
0.581967 0.0980171 1.91849
0.39112 0.0980171 1.96629
0.586147 0.19509 1.93227
0.393929 0.19509 1.98042
0.390181 1.22465e-16 1.96157
0.196034 1.22465e-16 1.99037
0.39112 0.0980171 1.96629
0.196506 0.0980171 1.99516
0.196034 1.22465e-16 1.99037
0 0 2
0.196506 0.0980171 1.99516
1.2276e-16 0.0980171 2.00482
0.39112 0.0980171 1.96629
0.196506 0.0980171 1.99516
0.393929 0.19509 1.98042
0.197918 0.19509 2.00949
0.196506 0.0980171 1.99516
1.2276e-16 0.0980171 2.00482
0.197918 0.19509 2.00949
1.23641e-16 0.19509 2.01921
0.77272 0.19509 1.86551
0.586147 0.19509 1.93227
0.781845 0.290285 1.88754
0.593069 0.290285 1.95509
0.586147 0.19509 1.93227
0.393929 0.19509 1.98042
0.593069 0.290285 1.95509
0.398581 0.290285 2.0038
0.781845 0.290285 1.88754
0.593069 0.290285 1.95509
0.794497 0.382683 1.91809
0.602666 0.382683 1.98672
0.593069 0.290285 1.95509
0.398581 0.290285 2.0038
0.602666 0.382683 1.98672
0.405031 0.382683 2.03623
0.393929 0.19509 1.98042
0.197918 0.19509 2.00949
0.398581 0.290285 2.0038
0.200255 0.290285 2.03322
0.197918 0.19509 2.00949
1.23641e-16 0.19509 2.01921
0.200255 0.290285 2.03322
1.25101e-16 0.290285 2.04306
0.398581 0.290285 2.0038
0.200255 0.290285 2.03322
0.405031 0.382683 2.03623
0.203495 0.382683 2.06612
0.200255 0.290285 2.03322
1.25101e-16 0.290285 2.04306
0.203495 0.382683 2.06612
1.27126e-16 0.382683 2.07612
1.46804 0.382683 1.46804
1.31708 0.382683 1.60486
1.49771 0.471397 1.49771
[...]
POINT_DATA 26188
SCALARS U double 1
LOOKUP_TABLE default
-0.017153 -0.0136925 -0.0170863 -0.0136521 -0.0136925 -0.0116937 -0.0136521 -0.0116789 -0.0170863 -0.0136521 -0.0168953 -0.0135441 -0.0136521 -0.0116789 -0.0135441 -0.0116398 -0.0116937 -0.00988842 -0.0116789 -0.00988848 -0.00988842 -0.00877741 -0.00988848 -0.00878589 -0.0116789 -0.00988848 -0.0116398 -0.00989179 -0.00988848 -0.00878589 -0.00989179 -0.00881339 -0.0168953 -0.0135441 -0.0167424 -0.0133697 -0.0135441 -0.0116398 -0.0133697 -0.0115935 -0.0167424 -0.0133697 -0.0169549 -0.0130944 -0.0133697 -0.0115935 -0.0130944 -0.0115715 -0.0116398 -0.00989179 -0.0115935 -0.00990152 -0.00989179 -0.00881339 -0.00990152 -0.00886229 -0.0115935 -0.00990152 -0.0115715 -0.00991638 -0.00990152 -0.00886229 -0.00991638 -0.00893426 -0.00877741 -0.00718105 -0.00878589 -0.00717818 -0.00718105 -0.00497784 -0.00717818 -0.00494661 -0.00878589 -0.00717818 -0.00881339 -0.00717019 -0.00717818 -0.00494661 -0.00717019 -0.00484886 -0.00497784 -0.00319384 -0.00494661 -0.00315111 -0.00319384 -0.00218369 -0.00315111 -0.00216372 -0.00494661 -0.00315111 -0.00484886 -0.00301436 -0.00315111 -0.00216372 -0.00301436 -0.0020962 -0.00881339 -0.00717019 -0.00886229 -0.00715693 -0.00717019 -0.00484886 -0.00715693 -0.00467411 -0.00886229 -0.00715693 -0.00893426 -0.00714061 -0.00715693 -0.00467411 -0.00714061 -0.00441809 -0.00484886 -0.00301436 -0.00467411 -0.00276157 -0.00301436 -0.0020962 -0.00276157 -0.00196029 -0.00467411 -0.00276157 -0.00441809 -0.00237608 -0.00276157 -0.00196029 -0.00237608 -0.00173798 -0.0169549 -0.0130944 -0.0167595 -0.0129334 -0.0130944 -0.0115715 -0.0129334 -0.0115412 -0.0167595 -0.0129334 -0.0164891 -0.012827 -0.0129334 -0.0115412 -0.012827 -0.0115179 -0.0115715 -0.00991638 -0.0115412 -0.0099416 -0.00991638 -0.00893426 -0.0099416 -0.00902002 -0.0115412 -0.0099416 -0.0115179 -0.00995517 -0.0099416 -0.00902002 -0.00995517 -0.00909642 -0.0164891 -0.012827 -0.0162622 -0.0127405 -0.012827 -0.0115179 -0.0127405 -0.0114872 -0.0162622 -0.0127405 -0.0160448 -0.0126419 -0.0127405 -0.0114872 -0.0126419 -0.0114134 -0.0115179 -0.00995517 -0.0114872 -0.00992072 -0.00995517 -0.00909642 -0.00992072 -0.00911461 -0.0114872 -0.00992072 -0.0114134 -0.00978775 -0.00992072 -0.00911461 -0.00978775 -0.00900176 -0.00893426 -0.00714061 -0.00902002 -0.00712505 -0.00714061 -0.00441809 -0.00712505 -0.00409261 -0.00902002 -0.00712505 -0.00909642 -0.0071058 -0.00712505 -0.00409261 -0.0071058 -0.00372624 -0.00441809 -0.00237608 -0.00409261 -0.00186649 -0.00237608 -0.00173798 -0.00186649 -0.00143228 -0.00409261 -0.00186649 -0.00372624 -0.00127647 -0.00186649 -0.00143228 -0.00127647 -0.00107827 -0.00909642 -0.0071058 -0.00911461 -0.00705867 -0.0071058 -0.00372624 -0.00705867 -0.00335168 -0.00911461 -0.00705867 -0.00900176 -0.00693224 -0.00705867 -0.00335168 -0.00693224 -0.00298721 -0.00372624 -0.00127647 -0.00335168 -0.000676054 -0.00127647 -0.00107827 -0.000676054 -0.000737699 -0.00335168 -0.000676054 -0.00298721 -0.000136562 -0.000676054 -0.000737699 -0.000136562 -0.000477386 -0.00218369 -0.00117849 -0.00216372 -0.00118683 -0.00117849 -0.000116065 -0.00118683 -0.000133094 -0.00216372 -0.00118683 -0.0020962 -0.00120909 -0.00118683 -0.000133094 -0.00120909 -0.000184956 -0.000116065 -0.000193044 -0.000133094 -0.000208769 -0.000193044 -0.00178719 -0.000208769 -0.00179504 -0.000133094 -0.000208769 -0.000184956 -0.000257344 -0.000208769 -0.00179504 -0.000257344 -0.00181638 -0.0020962 -0.00120909 -0.00196029 -0.00123505 -0.00120909 -0.000184956 -0.00123505 -0.000268399 -0.00196029 -0.00123505 -0.00173798 -0.00125537 -0.00123505 -0.000268399 -0.00125537 -0.000379058 -0.000184956 -0.000257344 -0.000268399 -0.000335543 -0.000257344 -0.00181638 -0.000335543 -0.00183939 -0.000268399 -0.000335543 -0.000379058 -0.000437752 -0.000335543 -0.00183939 -0.000437752 -0.00185282 -0.00178719 -0.00357215 -0.00179504 -0.00355899 -0.00357215 -0.00481981 -0.00355899 -0.00479997 -0.00179504 -0.00355899 -0.00181638 -0.00350854 -0.00355899 -0.00479997 -0.00350854 -0.0047209 -0.00481981 -0.00557201 -0.00479997 -0.00558444 -0.00557201 -0.00453904 -0.00558444 -0.00457649 -0.00479997 -0.00558444 -0.0047209 -0.00560344 -0.00558444 -0.00457649 -0.00560344 -0.00468225 -0.00181638 -0.00350854 -0.00183939 -0.00338897 -0.00350854 -0.0047209 -0.00338897 -0.00452672 -0.00183939 -0.00338897 -0.00185282 -0.00317712 -0.00338897 -0.00452672 -0.00317712 -0.00416478 -0.0047209 -0.00560344 -0.00452672 -0.0055671 -0.00560344 -0.00468225 -0.0055671 -0.00481926 -0.00452672 -0.0055671 -0.00416478 -0.00538612 -0.0055671 -0.00481926 -0.00538612 -0.00490428 -0.00173798 -0.00125537 -0.00143228 -0.00127064 -0.00125537 -0.000379058 -0.00127064 -0.00051335 -0.00143228 -0.00127064 -0.00107827 -0.0012971 -0.00127064 -0.00051335 -0.0012971 -0.000670545 -0.000379058 -0.000437752 -0.00051335 -0.000554746 -0.000437752 -0.00185282 -0.000554746 -0.00184727 -0.00051335 -0.000554746 -0.000670545 -0.00067388 -0.000554746 -0.00184727 -0.00067388 -0.00181047 -0.00107827 -0.0012971 -0.000737699 -0.00136377 -0.0012971 -0.000670545 -0.00136377 -0.000853564 -0.000737699 -0.00136377 -0.000477386 -0.00150129 -0.00136377 -0.000853564 -0.00150129 -0.00106737 -0.000670545 -0.00067388 -0.000853564 -0.000784125 -0.00067388 -0.00181047 -0.000784125 -0.00172763 -0.000853564 -0.000784125 -0.00106737 -0.00088458 -0.000784125 -0.00172763 -0.00088458 -0.00159503 -0.00185282 -0.00317712 -0.00184727 -0.00287645 -0.00317712 -0.00416478 -0.00287645 -0.00362139 -0.00184727 -0.00287645 -0.00181047 -0.00251473 -0.00287645 -0.00362139 -0.00251473 -0.00293951 -0.00416478 -0.00538612 -0.00362139 -0.00496036 -0.00538612 -0.00490428 -0.00496036 -0.00478614 -0.00362139 -0.00496036 -0.00293951 -0.004206 -0.00496036 -0.00478614 -0.004206 -0.00425467 -0.00181047 -0.00251473 -0.00172763 -0.00212929 -0.00251473 -0.00293951 -0.00212929 -0.00221339 -0.00172763 -0.00212929 -0.00159503 -0.00175777 -0.00212929 -0.00221339 -0.00175777 -0.0015659 -0.00293951 -0.004206 -0.00221339 -0.00310145 -0.004206 -0.00425467 -0.00310145 -0.00312121 -0.00221339 -0.00310145 -0.0015659 -0.00173966 -0.00310145 -0.00312121 -0.00173966 -0.0013562 -0.0160448 -0.0126419 -0.0157947 -0.0124832 -0.0126419 -0.0114134 -0.0124832 -0.0112513 -0.0157947 -0.0124832 -0.0154747 -0.0122182 -0.0124832 -0.0112513 -0.0122182 -0.0109559 -0.0114134 -0.00978775 -0.0112513 -0.00950149 -0.00978775 -0.00900176 -0.00950149 -0.00867738 -0.0112513 -0.00950149 -0.0109559 -0.00902102 -0.00950149 -0.00867738 -0.00902102 -0.00808294 -0.0154747 -0.0122182 -0.0150713 -0.0118181 -0.0122182 -0.0109559 -0.0118181 -0.0104946 -0.0150713 -0.0118181 -0.0146052 -0.0112814 -0.0118181 -0.0104946 -0.0112814 -0.00985741 -0.0109559 -0.00902102 -0.0104946 -0.00833745 -0.00902102 -0.00808294 -0.00833745 -0.00721401 -0.0104946 -0.00833745 -0.00985741 -0.00748409 -0.00833745 -0.00721401 -0.00748409 -0.00613762 -0.00900176 -0.00693224 -0.00867738 -0.00665568 -0.00693224 -0.00298721 -0.00665568 -0.00262527 -0.00867738 -0.00665568 -0.00808294 -0.00616495 -0.00665568 -0.00262527 -0.00616495 -0.00223867 -0.00298721 -0.000136562 -0.00262527 0.000295993 -0.000136562 -0.000477386 0.000295993 -0.000343744 -0.00262527 0.000295993 -0.00223867 0.000612518 0.000295993 -0.000343744 0.000612518 -0.000348145 -0.00808294 -0.00616495 -0.00721401 -0.00543769 -0.00616495 -0.00223867 -0.00543769 -0.00180302 -0.00721401 -0.00543769 -0.00613762 -0.00451799 -0.00543769 -0.00180302 -0.00451799 -0.00132133 -0.00223867 0.000612518 -0.00180302 0.000831422 0.000612518 -0.000348145 0.000831422 -0.000469297 -0.00180302 0.000831422 -0.00132133 0.000976928 0.000831422 -0.000469297 0.000976928 -0.000666723 -0.0146052 -0.0112814 -0.0141014 -0.0106423 -0.0112814 -0.00985741 -0.0106423 -0.00906063 -0.0141014 -0.0106423 -0.0137512 -0.00992924 -0.0106423 -0.00906063 -0.00992924 -0.00815216 -0.00985741 -0.00748409 -0.00906063 -0.00653324 -0.00748409 -0.00613762 -0.00653324 -0.00498179 -0.00906063 -0.00653324 -0.00815216 -0.00557852 -0.00653324 -0.00498179 -0.00557852 -0.00389849 -0.0137512 -0.00992924 -0.0140953 -0.00908112 -0.00992924 -0.00815216 -0.00908112 -0.00722584 -0.0140953 -0.00908112 -0.013981 -0.0084063 -0.00908112 -0.00722584 -0.0084063 -0.00629921 -0.00815216 -0.00557852 -0.00722584 -0.00470488 -0.00557852 -0.00389849 -0.00470488 -0.00301773 -0.00722584 -0.00470488 -0.00629921 -0.00399277 -0.00470488 -0.00301773 -0.00399277 -0.00240592 -0.00613762 -0.00451799 -0.00498179 -0.00351403 -0.00451799 -0.00132133 -0.00351403 -0.000834129 -0.00498179 -0.00351403 -0.00389849 -0.0025659 -0.00351403 -0.000834129 -0.0025659 -0.000407418 -0.00132133 0.000976928 -0.000834129 0.00106108 0.000976928 -0.000666723 0.00106108 -0.000894406 -0.000834129 0.00106108 -0.000407418 0.00108083 0.00106108 -0.000894406 0.00108083 -0.00110766 -0.00389849 -0.0025659 -0.00301773 -0.00179769 -0.0025659 -0.000407418 -0.00179769 -0.000105712 -0.00301773 -0.00179769 -0.00240592 -0.00128008 -0.00179769 -0.000105712 -0.00128008 3.38776e-05 -0.000407418 0.00108083 -0.000105712 0.00102961 0.00108083 -0.00110766 0.00102961 -0.00126472 -0.000105712 0.00102961 3.38776e-05 0.00091185 0.00102961 -0.00126472 0.00091185 -0.00133027 -0.000477386 -0.00150129 -0.000343744 -0.00172875 -0.00150129 -0.00106737 -0.00172875 -0.00131437 -0.000343744 -0.00172875 -0.000348145 -0.0020453 -0.00172875 -0.00131437 -0.0020453 -0.00158669 -0.00106737 -0.00088458 -0.00131437 -0.000987377 -0.00088458 -0.00159503 -0.000987377 -0.00143601 -0.00131437 -0.000987377 -0.00158669 -0.00110502 -0.000987377 -0.00143601 -0.00110502 -0.00129771 -0.000348145 -0.0020453 -0.000469297 -0.00242805 -0.0020453 -0.00158669 -0.00242805 -0.0018565 -0.000469297 -0.00242805 -0.000666723 -0.00283267 -0.00242805 -0.0018565 -0.00283267 -0.00206973 -0.00158669 -0.00110502 -0.0018565 -0.00122392 -0.00110502 -0.00129771 -0.00122392 -0.00122004 -0.0018565 -0.00122392 -0.00206973 -0.00128266 -0.00122392 -0.00122004 -0.00128266 -0.00119785 -0.00159503 -0.00175777 -0.00143601 -0.00143991 -0.00175777 -0.0015659 -0.00143991 -0.00111616 -0.00143601 -0.00143991 -0.00129771 -0.00121851 -0.00143991 -0.00111616 -0.00121851 -0.000945152 -0.0015659 -0.00173966 -0.00111616 -0.000343334 -0.00173966 -0.0013562 -0.000343334 0.000810231 -0.00111616 -0.000343334 -0.000945152 0.000800953 -0.000343334 0.000810231 0.000800953 0.00294345 -0.00129771 -0.00121851 -0.00122004 -0.00112872 -0.00121851 -0.000945152 -0.00112872 -0.00107228 -0.00122004 -0.00112872 -0.00119785 -0.00117985 -0.00112872 -0.00107228 -0.00117985 -0.00145793 -0.000945152 0.000800953 -0.00107228 0.00147327 0.000800953 0.00294345 0.00147327 0.00461752 -0.00107228 0.00147327 -0.00145793 0.00162335 0.00147327 0.00461752 0.00162335 0.00563212 -0.000666723 -0.00283267 -0.000894406 -0.00319555 -0.00283267 -0.00206973 -0.00319555 -0.00215188 -0.000894406 -0.00319555 -0.00110766 -0.00344087 -0.00319555 -0.00215188 -0.00344087 -0.00203224 -0.00206973 -0.00128266 -0.00215188 -0.00117905 -0.00128266 -0.00119785 -0.00117905 -0.00116982 -0.00215188 -0.00117905 -0.00203224 -0.000813398 -0.00117905 -0.00116982 -0.000813398 -0.0010466 -0.00110766 -0.00344087 -0.00126472 -0.0034983 -0.00344087 -0.00203224 -0.0034983 -0.00168025 -0.00126472 -0.0034983 -0.00133027 -0.0033312 -0.0034983 -0.00168025 -0.0033312 -0.00113477 -0.00203224 -0.000813398 -0.00168025 -0.000145756 -0.000813398 -0.0010466 -0.000145756 -0.000755752 -0.00168025 -0.000145756 -0.00113477 0.000773631 -0.000145756 -0.000755752 0.000773631 -0.000266568 -0.00119785 -0.00117985 -0.00116982 -0.00134431 -0.00117985 -0.00145793 -0.00134431 -0.00202956 -0.00116982 -0.00134431 -0.0010466 -0.00156027 -0.00134431 -0.00202956 -0.00156027 -0.0027051 -0.00145793 0.00162335 -0.00202956 0.00136446 0.00162335 0.00563212 0.00136446 0.00606204 -0.00202956 0.00136446 -0.0027051 0.000881337 0.00136446 0.00606204 0.000881337 0.0061328 -0.0010466 -0.00156027 -0.000755752 -0.00174271 -0.00156027 -0.0027051 -0.00174271 -0.00339008 -0.000755752 -0.00174271 -0.000266568 -0.00179755 -0.00174271 -0.00339008 -0.00179755 -0.00396094 -0.0027051 0.000881337 -0.00339008 0.000344355 0.000881337 0.0061328 0.000344355 0.00606031 -0.00339008 0.000344355 -0.00396094 -0.000119798 0.000344355 0.00606031 -0.000119798 0.00596963 -0.0139625 -0.00837494 -0.0140759 -0.00904854 -0.00837494 -0.00626695 -0.00904854 -0.00719238 -0.0140759 -0.00904854 -0.0137321 -0.00989752 -0.00904854 -0.00719238 -0.00989752 -0.00811961 -0.00626695 -0.00397216 -0.00719238 -0.00468335 -0.00397216 -0.0023988 -0.00468335 -0.00301026 -0.00719238 -0.00468335 -0.00811961 -0.0055575 -0.00468335 -0.00301026 -0.0055575 -0.00389125 -0.0137321 -0.00989752 -0.0140841 -0.0106134 -0.00989752 -0.00811961 -0.0106134 -0.00903102 -0.0140841 -0.0106134 -0.0145905 -0.0112569 -0.0106134 -0.00903102 -0.0112569 -0.00983235 -0.00811961 -0.0055575 -0.00903102 -0.00651414 -0.0055575 -0.00389125 -0.00651414 -0.00497543 -0.00903102 -0.00651414 -0.00983235 -0.00746806 -0.00651414 -0.00497543 -0.00746806 -0.00613269 -0.0023988 -0.00128023 -0.00301026 -0.00179808 -0.00128023 3.16993e-05 -0.00179808 -0.00010846 -0.00301026 -0.00179808 -0.00389125 -0.00256665 -0.00179808 -0.00010846 -0.00256665 -0.000410728 3.16993e-05 0.000908196 -0.00010846 0.00102537 0.000908196 -0.00133804 0.00102537 -0.00127285 -0.00010846 0.00102537 -0.000410728 0.00107602 0.00102537 -0.00127285 0.00107602 -0.0011161 -0.00389125 -0.00256665 -0.00497543 -0.00351529 -0.00256665 -0.000410728 -0.00351529 -0.000837977 -0.00497543 -0.00351529 -0.00613269 -0.00451988 -0.00351529 -0.000837977 -0.00451988 -0.00132567 -0.000410728 0.00107602 -0.000837977 0.00105576 0.00107602 -0.0011161 0.00105576 -0.000903083 -0.000837977 0.00105576 -0.00132567 0.00097119 0.00105576 -0.000903083 0.00097119 -0.000675523 -0.0145905 -0.0112569 -0.0150602 -0.011799 -0.0112569 -0.00983235 -0.011799 -0.0104751 -0.0150602 -0.011799 -0.0154673 -0.0122048 -0.011799 -0.0104751 -0.0122048 -0.0109422 -0.00983235 -0.00746806 -0.0104751 -0.00832524 -0.00746806 -0.00613269 -0.00832524 -0.0072109 -0.0104751 -0.00832524 -0.0109422 -0.00901286 -0.00832524 -0.0072109 -0.00901286 -0.00808179 -0.0154673 -0.0122048 -0.0157908 -0.0124751 -0.0122048 -0.0109422 -0.0124751 -0.011243 -0.0157908 -0.0124751 -0.0160439 -0.0126382 -0.0124751 -0.011243 -0.0126382 -0.0114096 -0.0109422 -0.00901286 -0.011243 -0.00949716 -0.00901286 -0.00808179 -0.00949716 -0.0086781 -0.011243 -0.00949716 -0.0114096 -0.00978665 -0.00949716 -0.0086781 -0.00978665 -0.00900405 -0.00613269 -0.00451988 -0.0072109 -0.0054403 -0.00451988 -0.00132567 -0.0054403 -0.00180778 -0.0072109 -0.0054403 -0.00808179 -0.0061683 -0.0054403 -0.00180778 -0.0061683 -0.00224377 -0.00132567 0.00097119 -0.00180778 0.00082538 0.00097119 -0.000675523 0.00082538 -0.000478083 -0.00180778 0.00082538 -0.00224377 0.00060631 0.00082538 -0.000478083 0.00060631 -0.000356765 -0.00808179 -0.0061683 -0.0086781 -0.00665967 -0.0061683 -0.00224377 -0.00665967 -0.00263057 -0.0086781 -0.00665967 -0.00900405 -0.00693671 -0.00665967 -0.00263057 -0.00693671 -0.00299256 -0.00224377 0.00060631 -0.00263057 0.000289772 0.00060631 -0.000356765 0.000289772 -0.000352039 -0.00263057 0.000289772 -0.00299256 -0.000142633 0.000289772 -0.000352039 -0.000142633 -0.000485199 -0.00133804 -0.00334764 -0.00127285 -0.00351459 -0.00334764 -0.00116638 -0.00351459 -0.00171048 -0.00127285 -0.00351459 -0.0011161 -0.0034569 -0.00351459 -0.00171048 -0.0034569 -0.00206078 -0.00116638 0.00074713 -0.00171048 -0.000171308 0.00074713 -0.000265675 -0.000171308 -0.000757241 -0.00171048 -0.000171308 -0.00206078 -0.000840768 -0.000171308 -0.000757241 -0.000840768 -0.00105891 -0.0011161 -0.0034569 -0.000903083 -0.00321115 -0.0034569 -0.00206078 -0.00321115 -0.00217858 -0.000903083 -0.00321115 -0.000675523 -0.00284769 -0.00321115 -0.00217858 -0.00284769 -0.00209452 -0.00206078 -0.000840768 -0.00217858 -0.00120914 -0.000840768 -0.00105891 -0.00120914 -0.00119547 -0.00217858 -0.00120914 -0.00209452 -0.0013145 -0.00120914 -0.00119547 -0.0013145 -0.0012336 -0.000265675 -0.00201262 -0.000757241 -0.00192183 -0.00201262 -0.00452763 -0.00192183 -0.00385449 -0.000757241 -0.00192183 -0.00105891 -0.0016968 -0.00192183 -0.00385449 -0.0016968 -0.00303749 -0.00452763 -0.000408279 -0.00385449 9.50297e-05 -0.000408279 0.00588361 9.50297e-05 0.00597618 -0.00385449 9.50297e-05 -0.00303749 0.000686397 9.50297e-05 0.00597618 0.000686397 0.00605163 -0.00105891 -0.0016968 -0.00119547 -0.00144512 -0.0016968 -0.00303749 -0.00144512 -0.00224446 -0.00119547 -0.00144512 -0.0012336 -0.00125658 -0.00144512 -0.00224446 -0.00125658 -0.0015917 -0.00303749 0.000686397 -0.00224446 0.00122161 0.000686397 0.00605163 0.00122161 0.00598552 -0.00224446 0.00122161 -0.0015917 0.00151984 0.00122161 0.00598552 0.00151984 0.00556178 -0.000675523 -0.00284769 -0.000478083 -0.00244233 -0.00284769 -0.00209452 -0.00244233 -0.00187937 -0.000478083 -0.00244233 -0.000356765 -0.00205872 -0.00244233 -0.00187937 -0.00205872 -0.00160757 -0.00209452 -0.0013145 -0.00187937 -0.00125562 -0.0013145 -0.0012336 -0.00125562 -0.00126011 -0.00187937 -0.00125562 -0.00160757 -0.00113487 -0.00125562 -0.00126011 -0.00113487 -0.00133711 -0.000356765 -0.00205872 -0.000352039 -0.00174115 -0.00205872 -0.00160757 -0.00174115 -0.00133317 -0.000352039 -0.00174115 -0.000485199 -0.00151257 -0.00174115 -0.00133317 -0.00151257 -0.00108402 -0.00160757 -0.00113487 -0.00133317 -0.00101432 -0.00113487 -0.00133711 -0.00101432 -0.00147184 -0.00133317 -0.00101432 -0.00108402 -0.000908174 -0.00101432 -0.00147184 -0.000908174 -0.00162621 -0.0012336 -0.00125658 -0.00126011 -0.00119065 -0.00125658 -0.0015917 -0.00119065 -0.00115983 -0.00126011 -0.00119065 -0.00133711 -0.00127077 -0.00119065 -0.00115983 -0.00127077 -0.00100914 -0.0015917 0.00151984 -0.00115983 0.00139512 0.00151984 0.00556178 0.00139512 0.00455431 -0.00115983 0.00139512 -0.00100914 0.000738357 0.00139512 0.00455431 0.000738357 0.00288778 -0.00133711 -0.00127077 -0.00147184 -0.00148469 -0.00127077 -0.00100914 -0.00148469 -0.00116752 -0.00147184 -0.00148469 -0.00162621 -0.00179591 -0.00148469 -0.00116752 -0.00179591 -0.00160869 -0.00100914 0.000738357 -0.00116752 -0.000395444 0.000738357 0.00288778 -0.000395444 0.000762111 -0.00116752 -0.000395444 -0.00160869 -0.00178341 -0.000395444 0.000762111 -0.00178341 -0.00139702 -0.0160439 -0.0126382 -0.0162634 -0.0127402 -0.0126382 -0.0114096 -0.0127402 -0.0114868 -0.0162634 -0.0127402 -0.0164918 -0.0128288 -0.0127402 -0.0114868 -0.0128288 -0.0115198 -0.0114096 -0.00978665 -0.0114868 -0.00992204 -0.00978665 -0.00900405 -0.00992204 -0.00911801 -0.0114868 -0.00992204 -0.0115198 -0.00995802 -0.00992204 -0.00911801 -0.00995802 -0.00910043 -0.0164918 -0.0128288 -0.0167629 -0.0129364 -0.0128288 -0.0115198 -0.0129364 -0.0115443 -0.0167629 -0.0129364 -0.0169583 -0.0130977 -0.0129364 -0.0115443 -0.0130977 -0.0115748 -0.0115198 -0.00995802 -0.0115443 -0.00994518 -0.00995802 -0.00910043 -0.00994518 -0.00902415 -0.0115443 -0.00994518 -0.0115748 -0.00991999 -0.00994518 -0.00902415 -0.00991999 -0.00893807 -0.00900405 -0.00693671 -0.00911801 -0.00706339 -0.00693671 -0.00299256 -0.00706339 -0.00335691 -0.00911801 -0.00706339 -0.00910043 -0.00711049 -0.00706339 -0.00335691 -0.00711049 -0.00373116 -0.00299256 -0.000142633 -0.00335691 -0.000681813 -0.000142633 -0.000485199 -0.000681813 -0.000744881 -0.00335691 -0.000681813 -0.00373116 -0.00128176 -0.000681813 -0.000744881 -0.00128176 -0.00108469 -0.00910043 -0.00711049 -0.00902415 -0.00712943 -0.00711049 -0.00373116 -0.00712943 -0.00409704 -0.00902415 -0.00712943 -0.00893807 -0.00714444 -0.00712943 -0.00409704 -0.00714444 -0.00442186 -0.00373116 -0.00128176 -0.00409704 -0.00187115 -0.00128176 -0.00108469 -0.00187115 -0.00143781 -0.00409704 -0.00187115 -0.00442186 -0.00237999 -0.00187115 -0.00143781 -0.00237999 -0.00174252 -0.0169583 -0.0130977 -0.0167453 -0.0133726 -0.0130977 -0.0115748 -0.0133726 -0.0115966 -0.0167453 -0.0133726 -0.0168975 -0.0135463 -0.0133726 -0.0115966 -0.0135463 -0.0116421 -0.0115748 -0.00991999 -0.0115966 -0.00990465 -0.0