# vtk DataFile Version 3.0
#This file was generated by the deal.II library on 2023/2/27 at 0:39:27
ASCII
DATASET UNSTRUCTURED_GRID

FIELD FieldData 2
CYCLE 1 1 int
81
TIME 1 1 double
0.162
POINTS 25288 double
2.7746 -0.382683 2.7746
2.17999 -0.382683 3.26259
2.70926 -0.55557 2.70926
2.12865 -0.55557 3.18575
2.17999 -0.382683 3.26259
1.5016 -0.382683 3.62519
2.12865 -0.55557 3.18575
1.46624 -0.55557 3.53982
2.22228 0 3.32588
1.53073 0 3.69552
2.21161 -0.19509 3.3099
1.52338 -0.19509 3.67777
2.81484 -0.19509 2.81484
2.21161 -0.19509 3.3099
2.7746 -0.382683 2.7746
2.17999 -0.382683 3.26259
2.21161 -0.19509 3.3099
1.52338 -0.19509 3.67777
2.17999 -0.382683 3.26259
1.5016 -0.382683 3.62519
2.39192 -0.92388 2.39192
1.87932 -0.92388 2.8126
2.25927 -0.980785 2.25927
1.7751 -0.980785 2.65662
-0.765511 -0.382683 3.84848
-1.5016 -0.382683 3.62519
-0.747483 -0.55557 3.75785
-1.46624 -0.55557 3.53982
-0.780361 0 3.92314
-1.53073 0 3.69552
-0.776613 -0.19509 3.9043
-1.52338 -0.19509 3.67777
-0.776613 -0.19509 3.9043
-1.52338 -0.19509 3.67777
-0.765511 -0.382683 3.84848
-1.5016 -0.382683 3.62519
-0.623331 0.980785 3.1337
-1.22271 0.980785 2.95188
-0.659929 0.92388 3.31769
-1.2945 0.92388 3.12519
0.935443 -0.83147 2.25836
0.476885 -0.83147 2.39746
0.877452 -0.707107 2.11836
0.447321 -0.707107 2.24884
2.7746 0.382683 2.7746
2.17999 0.382683 3.26259
2.81484 0.19509 2.81484
2.21161 0.19509 3.3099
2.17999 0.382683 3.26259
1.5016 0.382683 3.62519
2.21161 0.19509 3.3099
1.52338 0.19509 3.67777
2.21161 0.19509 3.3099
1.52338 0.19509 3.67777
2.22228 0 3.32588
1.53073 0 3.69552
-0.877452 0.707107 2.11836
-1.27386 0.707107 1.90647
-0.935443 0.83147 2.25836
-1.35805 0.83147 2.03247
-1.27386 0.707107 1.90647
-1.62132 0.707107 1.62132
-1.35805 0.83147 2.03247
-1.72847 0.83147 1.72847
-0.935443 0.83147 2.25836
-1.35805 0.83147 2.03247
-1.0016 0.92388 2.41809
-1.4541 0.92388 2.17622
-1.35805 0.83147 2.03247
-1.72847 0.83147 1.72847
-1.4541 0.92388 2.17622
-1.85072 0.92388 1.85072
-1.0016 0.92388 2.41809
-1.4541 0.92388 2.17622
-1.07339 0.980785 2.5914
-1.55832 0.980785 2.3322
-1.4541 0.92388 2.17622
-1.85072 0.92388 1.85072
-1.55832 0.980785 2.3322
-1.98337 0.980785 1.98337
-1.07339 -0.980785 2.5914
-1.55832 -0.980785 2.3322
-1.0016 -0.92388 2.41809
-1.4541 -0.92388 2.17622
-1.55832 -0.980785 2.3322
-1.98337 -0.980785 1.98337
-1.4541 -0.92388 2.17622
-1.85072 -0.92388 1.85072
2.12686 0.55557 0.423059
2.00346 0.55557 0.829861
2.24884 0.707107 0.447321
2.11836 0.707107 0.877452
-1.0016 -0.92388 2.41809
-1.4541 -0.92388 2.17622
-0.935443 -0.83147 2.25836
-1.35805 -0.83147 2.03247
-1.4541 -0.92388 2.17622
-1.85072 -0.92388 1.85072
-1.35805 -0.83147 2.03247
-1.72847 -0.83147 1.72847
-1.35805 -0.83147 2.03247
-1.72847 -0.83147 1.72847
-1.27386 -0.707107 1.90647
-1.62132 -0.707107 1.62132
2.25836 -0.83147 0.935443
2.03247 -0.83147 1.35805
2.11836 -0.707107 0.877452
1.90647 -0.707107 1.27386
1.66671 -1 -2.49441
2.12132 -1 -2.12132
1.55832 -0.980785 -2.3322
1.98337 -0.980785 -1.98337
2.24884 -0.707107 0.447321
2.11836 -0.707107 0.877452
2.12686 -0.55557 0.423059
2.00346 -0.55557 0.829861
2.81484 -0.19509 -2.81484
3.3099 -0.19509 -2.21161
2.7746 -0.382683 -2.7746
3.26259 -0.382683 -2.17999
1.41865 -0.707107 -3.42492
2.05956 -0.707107 -3.08235
1.36066 -0.83147 -3.28492
1.97537 -0.83147 -2.95635
1.97537 -0.83147 -2.95635
2.51417 -0.83147 -2.51417
1.87932 -0.92388 -2.8126
2.39192 -0.92388 -2.39192
1.84776 1.22465e-16 -0.765367
1.96157 1.22465e-16 -0.390181
1.86551 0.19509 -0.77272
1.98042 0.19509 -0.393929
1.86551 0.19509 -0.77272
1.98042 0.19509 -0.393929
1.91809 0.382683 -0.794497
2.03623 0.382683 -0.405031
1.72623 0.382683 -1.15343
1.91809 0.382683 -0.794497
1.80307 0.55557 -1.20477
2.00346 0.55557 -0.829861
1.91809 0.382683 -0.794497
2.03623 0.382683 -0.405031
2.00346 0.55557 -0.829861
2.12686 0.55557 -0.423059
2.00346 0.55557 -0.829861
2.12686 0.55557 -0.423059
2.11836 0.707107 -0.877452
2.24884 0.707107 -0.447321
1.80307 -0.55557 -1.20477
2.00346 -0.55557 -0.829861
1.72623 -0.382683 -1.15343
1.91809 -0.382683 -0.794497
2.11836 -0.707107 -0.877452
2.24884 -0.707107 -0.447321
2.00346 -0.55557 -0.829861
2.12686 -0.55557 -0.423059
2.00346 -0.55557 -0.829861
2.12686 -0.55557 -0.423059
1.91809 -0.382683 -0.794497
2.03623 -0.382683 -0.405031
1.91809 -0.382683 -0.794497
2.03623 -0.382683 -0.405031
1.86551 -0.19509 -0.77272
1.98042 -0.19509 -0.393929
1.86551 -0.19509 -0.77272
1.98042 -0.19509 -0.393929
1.84776 1.22465e-16 -0.765367
1.96157 1.22465e-16 -0.390181
2.62132 -0.707107 -2.62132
3.08235 -0.707107 -2.05956
2.51417 -0.83147 -2.51417
2.95635 -0.83147 -1.97537
2.51417 0.83147 -2.51417
2.95635 0.83147 -1.97537
2.62132 0.707107 -2.62132
3.08235 0.707107 -2.05956
1.87932 -0.92388 -2.8126
2.39192 -0.92388 -2.39192
1.7751 -0.980785 -2.65662
2.25927 -0.980785 -2.25927
1.66671 1 -2.49441
2.12132 1 -2.12132
1.7751 0.980785 -2.65662
2.25927 0.980785 -2.25927
1.7751 0.980785 -2.65662
2.25927 0.980785 -2.25927
1.87932 0.92388 -2.8126
2.39192 0.92388 -2.39192
1.87932 0.92388 -2.8126
2.39192 0.92388 -2.39192
1.97537 0.83147 -2.95635
2.51417 0.83147 -2.51417
1.36066 0.83147 -3.28492
1.97537 0.83147 -2.95635
1.41865 0.707107 -3.42492
2.05956 0.707107 -3.08235
-0.693657 -0.83147 3.48725
-1.36066 -0.83147 3.28492
-0.659929 -0.92388 3.31769
-1.2945 -0.92388 3.12519
-2.05956 -0.707107 3.08235
-2.62132 -0.707107 2.62132
-1.97537 -0.83147 2.95635
-2.51417 -0.83147 2.51417
-1.36066 -0.83147 3.28492
-1.97537 -0.83147 2.95635
-1.2945 -0.92388 3.12519
-1.87932 -0.92388 2.8126
-1.97537 -0.83147 2.95635
-2.51417 -0.83147 2.51417
-1.87932 -0.92388 2.8126
-2.39192 -0.92388 2.39192
-1.87932 -0.92388 2.8126
-2.39192 -0.92388 2.39192
-1.7751 -0.980785 2.65662
-2.25927 -0.980785 2.25927
-1.22271 0.980785 2.95188
-1.7751 0.980785 2.65662
-1.2945 0.92388 3.12519
-1.87932 0.92388 2.8126
-1.7751 0.980785 2.65662
-2.25927 0.980785 2.25927
-1.87932 0.92388 2.8126
-2.39192 0.92388 2.39192
3.62519 0.382683 1.5016
3.26259 0.382683 2.17999
3.67777 0.19509 1.52338
3.3099 0.19509 2.21161
3.26259 0.382683 2.17999
2.7746 0.382683 2.7746
3.3099 0.19509 2.21161
2.81484 0.19509 2.81484
-1.87932 0.92388 2.8126
-2.39192 0.92388 2.39192
-1.97537 0.83147 2.95635
-2.51417 0.83147 2.51417
-1.97537 0.83147 2.95635
-2.51417 0.83147 2.51417
-2.05956 0.707107 3.08235
-2.62132 0.707107 2.62132
0.935443 0.83147 2.25836
0.476885 0.83147 2.39746
1.0016 0.92388 2.41809
0.510613 0.92388 2.56703
2.62132 0.707107 2.62132
2.05956 0.707107 3.08235
2.70926 0.55557 2.70926
2.12865 0.55557 3.18575
2.70926 0.55557 2.70926
2.12865 0.55557 3.18575
2.7746 0.382683 2.7746
2.17999 0.382683 3.26259
2.12865 0.55557 3.18575
1.46624 0.55557 3.53982
2.17999 0.382683 3.26259
1.5016 0.382683 3.62519
3.18575 -0.55557 2.12865
2.70926 -0.55557 2.70926
3.08235 -0.707107 2.05956
2.62132 -0.707107 2.62132
2.24884 0.707107 0.447321
2.11836 0.707107 0.877452
2.39746 0.83147 0.476885
2.25836 0.83147 0.935443
2.39746 0.83147 0.476885
2.25836 0.83147 0.935443
2.56703 0.92388 0.510613
2.41809 0.92388 1.0016
1.52338 -0.19509 -3.67777
2.21161 -0.19509 -3.3099
1.5016 -0.382683 -3.62519
2.17999 -0.382683 -3.26259
1.5016 0.382683 -3.62519
2.17999 0.382683 -3.26259
1.52338 0.19509 -3.67777
2.21161 0.19509 -3.3099
2.7746 -0.382683 -2.7746
3.26259 -0.382683 -2.17999
2.70926 -0.55557 -2.70926
3.18575 -0.55557 -2.12865
0.765367 1.22465e-16 1.84776
0.390181 1.22465e-16 1.96157
0.77272 0.19509 1.86551
0.393929 0.19509 1.98042
0.390181 1.22465e-16 1.96157
0 0 2
0.393929 0.19509 1.98042
1.23641e-16 0.19509 2.01921
0.77272 0.19509 1.86551
0.393929 0.19509 1.98042
0.794497 0.382683 1.91809
0.405031 0.382683 2.03623
0.393929 0.19509 1.98042
1.23641e-16 0.19509 2.01921
0.405031 0.382683 2.03623
1.27126e-16 0.382683 2.07612
2.75101 -0.980785 0.547211
2.5914 -0.980785 1.07339
2.56703 -0.92388 0.510613
2.41809 -0.92388 1.0016
0.794497 0.382683 1.91809
0.405031 0.382683 2.03623
0.829861 0.55557 2.00346
0.423059 0.55557 2.12686
0.405031 0.382683 2.03623
1.27126e-16 0.382683 2.07612
0.423059 0.55557 2.12686
1.32784e-16 0.55557 2.16853
0.829861 0.55557 2.00346
0.423059 0.55557 2.12686
0.877452 0.707107 2.11836
0.447321 0.707107 2.24884
0.423059 0.55557 2.12686
1.32784e-16 0.55557 2.16853
0.447321 0.707107 2.24884
1.40399e-16 0.707107 2.29289
2.56703 -0.92388 0.510613
2.41809 -0.92388 1.0016
2.39746 -0.83147 0.476885
2.25836 -0.83147 0.935443
2.39746 -0.83147 0.476885
2.25836 -0.83147 0.935443
2.24884 -0.707107 0.447321
2.11836 -0.707107 0.877452
-1.41421 1.22465e-16 1.41421
-1.66294 1.22465e-16 1.11114
-1.4278 0.19509 1.4278
-1.67892 0.19509 1.12182
-1.66294 1.22465e-16 1.11114
-1.84776 1.22465e-16 0.765367
-1.67892 0.19509 1.12182
-1.86551 0.19509 0.77272
-1.67892 0.19509 1.12182
-1.86551 0.19509 0.77272
-1.72623 0.382683 1.15343
-1.91809 0.382683 0.794497
-1.84776 1.22465e-16 0.765367
-1.96157 1.22465e-16 0.390181
-1.86551 0.19509 0.77272
-1.98042 0.19509 0.393929
-1.96157 1.22465e-16 0.390181
-2 0 0
-1.98042 0.19509 0.393929
-2.01921 0.19509 2.47282e-16
-1.86551 0.19509 0.77272
-1.98042 0.19509 0.393929
-1.91809 0.382683 0.794497
-2.03623 0.382683 0.405031
-1.98042 0.19509 0.393929
-2.01921 0.19509 2.47282e-16
-2.03623 0.382683 0.405031
-2.07612 0.382683 2.54251e-16
-1.72623 0.382683 1.15343
-1.91809 0.382683 0.794497
-1.80307 0.55557 1.20477
-2.00346 0.55557 0.829861
-1.80307 0.55557 1.20477
-2.00346 0.55557 0.829861
-1.90647 0.707107 1.27386
-2.11836 0.707107 0.877452
-1.91809 0.382683 0.794497
-2.03623 0.382683 0.405031
-2.00346 0.55557 0.829861
-2.12686 0.55557 0.423059
-2.03623 0.382683 0.405031
-2.07612 0.382683 2.54251e-16
-2.12686 0.55557 0.423059
-2.16853 0.55557 2.65568e-16
-2.00346 0.55557 0.829861
-2.12686 0.55557 0.423059
-2.11836 0.707107 0.877452
-2.24884 0.707107 0.447321
-1.90647 -0.707107 1.27386
-2.11836 -0.707107 0.877452
-1.80307 -0.55557 1.20477
-2.00346 -0.55557 0.829861
-1.80307 -0.55557 1.20477
-2.00346 -0.55557 0.829861
-1.72623 -0.382683 1.15343
-1.91809 -0.382683 0.794497
-1.62132 0.707107 1.62132
-1.90647 0.707107 1.27386
[...]
POINT_DATA 25288
SCALARS U double 1
LOOKUP_TABLE default
0.00135756 0.00213416 0.00231597 0.00305633 0.00213416 0.00289928 0.00305633 0.00374098 0.00134817 0.0020743 0.00155111 0.00231014 0.000780476 0.00155111 0.00135756 0.00213416 0.00155111 0.00231014 0.00213416 0.00289928 0.00694675 0.00720533 0.00878383 0.00879062 -0.00300003 -0.0026401 -0.00279545 -0.00209603 -0.00313395 -0.00312361 -0.00312041 -0.00301194 -0.00312041 -0.00301194 -0.00300003 -0.0026401 -0.00255522 -2.6785e-06 -0.00248734 -0.000366418 0.00679154 -8.28273e-06 0.00620087 -0.000267291 0.00150665 0.00221556 0.000867835 0.00158013 0.00221556 0.0028521 0.00158013 0.00227857 0.00158013 0.00227857 0.00134817 0.0020743 -0.000488331 0.00258372 -0.000213369 0.00260475 0.00258372 0.00392336 0.00260475 0.00377214 -0.000213369 0.00260475 5.03352e-05 0.00247012 0.00260475 0.00377214 0.00247012 0.00343287 5.03352e-05 0.00247012 0.000201317 0.00213383 0.00247012 0.00343287 0.00213383 0.00274809 0.000198931 0.00210343 6.07068e-05 0.00247581 0.00210343 0.00276794 0.00247581 0.00344781 0.00061375 0.00638905 0.000837177 0.00678957 6.07068e-05 0.00247581 -0.00017279 0.00265404 0.00247581 0.00344781 0.00265404 0.00379008 0.00265404 0.00379008 0.00262141 0.00395452 0.00759253 0.012642 0.00707472 0.0125786 0.0109013 0.0113034 0.0123744 0.013099 0.000933259 0.00707472 0.000668122 0.00653744 0.000640632 0.0016962 0.00142732 0.00212287 0.00494966 0.00463376 0.00615932 0.00602367 0.00602367 0.0054637 0.00753868 0.00729535 0.00473099 -0.000475574 0.0048368 -0.000439685 0.0048368 -0.000439685 0.00517216 -0.000332111 0.0118159 0.00517216 0.0126832 0.00569949 0.00517216 -0.000332111 0.00569949 -0.000161212 0.00569949 -0.000161212 0.00631861 6.47417e-06 0.012679 0.00569387 0.0118137 0.00516876 0.00630857 5.27831e-06 0.00569387 -0.000161957 0.00569387 -0.000161957 0.00516876 -0.000332634 0.00516876 -0.000332634 0.00483508 -0.000440008 0.00483508 -0.000440008 0.00473099 -0.000475574 0.0039067 0.00432058 0.0054637 0.00592921 0.00547166 0.00589769 0.00391948 0.00429022 0.00753868 0.00729535 0.00921297 0.00928877 0.0109913 0.0112588 0.00926116 0.00927082 0.00926116 0.00927082 0.00755689 0.0072922 0.00755689 0.0072922 0.0060348 0.00547166 0.00616297 0.0060348 0.00495345 0.00464385 -0.00242788 -0.000905001 -0.00236305 -0.000415939 -0.00170926 -0.00187718 -0.000968446 -0.0010177 -0.000905001 -0.000968446 -0.000415939 -0.00016572 -0.000968446 -0.0010177 -0.00016572 -8.06286e-05 -0.00016572 -8.06286e-05 0.000663837 0.000902832 -2.6785e-06 0.000742904 -0.000366418 -9.2888e-05 0.000742904 0.0008721 -9.2888e-05 -0.000109347 0.00340834 0.00230134 0.00288365 0.00170513 0.00230134 0.00150665 0.00170513 0.000867835 -9.2888e-05 -0.000109347 -0.000923224 -0.00104145 -0.000923224 -0.00104145 -0.00167895 -0.0018845 0.00708138 0.000152426 0.00754565 0.000356203 0.00381115 0.0043679 0.00250169 0.00317305 0.00250169 0.00317305 0.00150665 0.00221556 0.00317305 0.00369821 0.00221556 0.0028521 0.00313851 0.00231597 0.00442669 0.00362061 0.000837177 0.00678957 0.00108062 0.00721319 0.00108062 0.00721319 0.00136634 0.0076506 0.00242827 0.00171702 0.00304705 0.00231872 0.00304934 0.00232918 0.00242856 0.00172502 0.00142732 0.00212287 0.00254445 0.00301205 0.00469219 -0.000773136 0.00487779 -0.00061242 -0.000773136 -0.0041526 -0.00061242 -0.00406476 0.00487779 -0.00061242 0.00527488 -0.00043728 -0.00061242 -0.00406476 -0.00043728 -0.00404404 0.00180422 0.00826503 0.00151708 0.00802241 0.00527488 -0.00043728 0.00582597 -0.000220503 -0.00043728 -0.00404404 -0.000220503 -0.00403426 0.00582597 -0.000220503 0.00644303 -7.4341e-05 -0.000220503 -0.00403426 -7.4341e-05 -0.00411793 0.00151708 0.00802241 0.00121725 0.00759253 0.00121725 0.00759253 0.000933259 0.00707472 0.0032178 0.00153578 0.00334657 0.00166836 0.00153578 -0.00166908 0.00166836 -0.00161795 0.00166836 -0.00161795 0.00193488 -0.00144737 -0.00166908 -0.00434571 -0.00161795 -0.00433463 -0.00434571 -0.0050322 -0.00433463 -0.0050159 -0.00161795 -0.00433463 -0.00144737 -0.00430398 -0.00433463 -0.0050159 -0.00430398 -0.00497068 0.00193488 -0.00144737 0.00226152 -0.00124053 0.00226152 -0.00124053 0.00251112 -0.00103807 -0.00144737 -0.00430398 -0.00124053 -0.00429004 -0.00430398 -0.00497068 -0.00429004 -0.00495413 -0.00124053 -0.00429004 -0.00103807 -0.0042759 0.00250703 -0.00104052 0.00221869 -0.00125407 0.00221869 -0.00125407 0.0019151 -0.00147021 0.00392336 0.00251112 0.00377214 0.00262186 0.00251112 -0.00103807 0.00262186 -0.000723419 0.00377214 0.00262186 0.00343287 0.00252195 0.00344781 0.00252662 0.00379008 0.00262409 0.00379008 0.00262409 0.00395452 0.00250703 0.00262409 -0.000725069 0.00250703 -0.00104052 -0.00334253 -0.000617484 -0.00307289 -0.000312924 -0.00307289 -0.000312924 -0.00269767 -0.000234315 -0.00269718 -0.0002338 -0.00307259 -0.000312535 -0.00307259 -0.000312535 -0.00334239 -0.000617221 -0.00527668 -0.00327554 -0.00526216 -0.00323302 -0.00526216 -0.00323302 -0.00522881 -0.00311248 -0.00289392 -0.00250133 -0.00280125 -0.00225516 -0.00522881 -0.00311248 -0.0052004 -0.00294291 -0.00361829 -0.000488331 -0.00340382 -0.000213369 0.00517788 0.0056577 0.00694675 0.00720533 -0.00489405 -0.00220641 -0.00482197 -0.00205676 -0.00482258 -0.00205755 -0.00489451 -0.00220697 0.00710235 0.00736096 0.00536817 0.00579761 -0.00520058 -0.00294292 -0.00522889 -0.00311244 -0.00522889 -0.00311244 -0.00526221 -0.00323298 -0.00526221 -0.00323298 -0.00527668 -0.00327554 -0.00280111 -0.00225503 -0.00289392 -0.00250133 -0.00104052 -0.00427692 -0.00125407 -0.00429134 -0.00125407 -0.00429134 -0.00147021 -0.00430364 -0.00429134 -0.00495397 -0.00430364 -0.00497102 0.00358503 0.0019151 0.00329606 0.00163179 0.0019151 -0.00147021 0.00163179 -0.00161594 0.00329606 0.00163179 0.0032178 0.00153578 0.00163179 -0.00161594 0.00153578 -0.00166908 -0.00147021 -0.00430364 -0.00161594 -0.00433579 -0.00430364 -0.00497102 -0.00433579 -0.00501567 -0.00161594 -0.00433579 -0.00166908 -0.00434571 -0.00433579 -0.00501567 -0.00434571 -0.0050322 -0.00270169 -0.00444737 -0.00261508 -0.00440809 -0.00444737 -0.00527668 -0.00440809 -0.00526216 -0.00261508 -0.00440809 -0.00237405 -0.00431159 -0.00440809 -0.00526216 -0.00431159 -0.00522881 -0.00237405 -0.00431159 -0.00206322 -0.0041995 -0.00431159 -0.00522881 -0.0041995 -0.0052004 -0.00206322 -0.0041995 -0.00173108 -0.00410794 -0.0041995 -0.0052004 -0.00410794 -0.005108 -0.00187718 -0.00144526 -0.0010177 -0.000772854 -0.00144526 -0.00173108 -0.000772854 -0.00141724 -0.0010177 -0.000772854 -8.06286e-05 3.19939e-06 -0.000772854 -0.00141724 3.19939e-06 -0.00107491 -0.00173108 -0.00410794 -0.00141724 -0.00404819 -0.00410794 -0.005108 -0.00404819 -0.0049545 -0.00141724 -0.00404819 -0.00107491 -0.00400946 -0.00404819 -0.0049545 -0.00400946 -0.00489405 -8.06286e-05 3.19939e-06 0.000902832 0.000809106 3.19939e-06 -0.00107491 0.000809106 -0.000753694 0.000902832 0.000809106 0.00188984 0.00159489 0.000809106 -0.000753694 0.00159489 -0.000517785 -0.00107491 -0.00400946 -0.000753694 -0.00398694 -0.00400946 -0.00489405 -0.00398694 -0.00482197 -0.000753694 -0.00398694 -0.000517785 -0.00402285 -0.00398694 -0.00482197 -0.00402285 -0.00477811 0.00186457 0.00158514 0.0008721 0.000799753 0.00158514 -0.000514931 0.000799753 -0.000752124 0.0008721 0.000799753 -0.000109347 -6.03129e-06 0.000799753 -0.000752124 -6.03129e-06 -0.00107404 -0.000514931 -0.0040226 -0.000752124 -0.00398699 -0.0040226 -0.00477879 -0.00398699 -0.00482258 -0.000752124 -0.00398699 -0.00107404 -0.00400971 -0.00398699 -0.00482258 -0.00400971 -0.00489451 -0.000109347 -6.03129e-06 -0.00104145 -0.000777998 -6.03129e-06 -0.00107404 -0.000777998 -0.00141701 -0.00104145 -0.000777998 -0.0018845 -0.00144561 -0.000777998 -0.00141701 -0.00144561 -0.00173114 -0.00107404 -0.00400971 -0.00141701 -0.00404845 -0.00400971 -0.00489451 -0.00404845 -0.00495481 -0.00141701 -0.00404845 -0.00173114 -0.00410809 -0.00404845 -0.00495481 -0.00410809 -0.00510819 -0.00173114 -0.00410809 -0.00206185 -0.00419922 -0.00410809 -0.00510819 -0.00419922 -0.00520058 -0.00206185 -0.00419922 -0.00237561 -0.00431159 -0.00419922 -0.00520058 -0.00431159 -0.00522889 -0.00237561 -0.00431159 -0.00261488 -0.00440794 -0.00431159 -0.00522889 -0.00440794 -0.00526221 -0.00261488 -0.00440794 -0.00270169 -0.00444737 -0.00440794 -0.00526221 -0.00444737 -0.00527668 -0.00285599 0.000198931 -0.00311247 6.07068e-05 0.00284125 0.00164257 0.00332561 0.0021867 0.00164257 0.000780476 0.0021867 0.00135756 0.000462521 0.00586166 0.000439773 0.00588605 0.000517765 0.00616195 0.000483295 0.00595055 0.000483295 0.00595055 0.000462521 0.00586166 -0.00129593 0.00194471 -0.00119422 0.00201722 -0.0038116 -0.000823618 -0.00361829 -0.000488331 0.00255598 0.00298614 0.00144313 0.00211347 -0.00250133 0.000363519 -0.00225516 0.000487046 0.00620087 -0.000267291 0.00557222 -0.000513284 -0.00364998 -0.000512564 -0.00383291 -0.000829604 0.00242543 0.00382076 0.00219746 0.00358503 -0.00106641 0.00219746 -0.0012521 0.00199419 -0.0012521 0.00199419 -0.00129593 0.00194471 -0.00248429 -0.00237405 -0.00202955 -0.00206322 -0.00261246 -0.00202955 -0.00187718 -0.00144526 -0.0018845 -0.00144561 -0.00258437 -0.00203316 -0.00203316 -0.00206185 -0.00247957 -0.00237561 -0.00225503 0.000486965 -0.00250133 0.000363519 0.0123541 0.00679154 0.0121117 0.00620087 0.00442669 0.00362061 0.00593925 0.00517788 0.00593925 0.00517788 0.0074866 0.00694675 0.00760143 0.00710235 0.00609288 0.00536817 0.0103231 0.00469219 0.0105311 0.00487779 0.0105311 0.00487779 0.0110584 0.00527488 0.0109398 0.00508512 0.0104638 0.00477203 0.0104638 0.00477203 0.0103231 0.00469219 -0.0026401 -0.00300869 -0.00209603 -0.00240785 -0.00209603 -0.00240785 -0.00150908 -0.00170926 -0.00240785 -0.00261246 -0.00170926 -0.00187718 -0.00149122 -0.00167895 -0.0020911 -0.00233405 -0.00167895 -0.0018845 -0.00233405 -0.00258437 -0.0020911 -0.00233405 -0.00265484 -0.00295506 -0.00233405 -0.00258437 -0.00295506 -0.00322407 0.00231597 0.00268615 0.00296829 0.00326653 0.00268615 0.00305633 0.00326653 0.00361661 0.00296829 0.00326653 0.00362061 0.00393531 0.00326653 0.00361661 0.00393531 0.00424628 0.00101041 -0.0024343 0.000901447 -0.00247969 -0.0024343 -0.00427703 -0.00247969 -0.00426314 0.000594055 -0.00249797 0.000680438 -0.00245419 0.000680438 -0.00245419 0.000790977 -0.00240716 0.000790977 -0.00240716 0.000904546 -0.00235917 0.000904546 -0.00235917 0.000996523 -0.00231503 -0.00312361 -0.00336412 -0.00306778 -0.00333857 -0.00336412 -0.00360779 -0.00333857 -0.00356577 -0.00306778 -0.00333857 -0.00301194 -0.00321749 -0.00333857 -0.00356577 -0.00321749 -0.00344119 0.00305633 0.00339865 0.00361661 0.00403443 0.00339865 0.00374098 0.00403443 0.00417686 0.00361661 0.00403443 0.00424628 0.00464115 0.00403443 0.00417686 0.00464115 0.00467277 0.000996523 -0.00231503 0.00107257 -0.00228593 0.00107257 -0.00228593 0.00112375 -0.00227455 0.00112375 -0.00227455 0.00115282 -0.00228222 0.00115282 -0.00228222 0.00113833 -0.00230504 0.0020743 0.0019802 0.00219222 0.00197943 0.0019802 0.000525765 0.00197943 0.000507564 0.00219222 0.00197943 0.00231014 0.00205588 0.00197943 0.000507564 0.00205588 0.000504347 0.000525765 -0.00252269 0.000507564 -0.00250562 -0.00252269 -0.00474955 -0.00250562 -0.00472033 0.000507564 -0.00250562 0.000504347 -0.00248133 -0.00250562 -0.00472033 -0.00248133 -0.00469249 0.00231014 0.00205588 0.00260471 0.00215719 0.00205588 0.000504347 0.00215719 0.000540894 0.00260471 0.00215719 0.00289928 0.00230956 0.00215719 0.000540894 0.00230956 0.000594055 0.000926305 -0.00241145 0.000995857 -0.00244116 0.000995857 -0.00244116 0.00101804 -0.00242262 -0.00244116 -0.00433497 -0.00242262 -0.00438695 0.000698718 -0.00251115 0.000639714 -0.00253348 0.000639714 -0.00253348 0.000603949 -0.00252611 -0.00253348 -0.00474645 -0.00252611 -0.00476044 0.000504347 -0.00248133 0.000540894 -0.00249134 -0.00248133 -0.00469249 -0.00249134 -0.00469452 0.000540894 -0.00249134 0.000594055 -0.00249797 -0.00249134 -0.00469452 -0.00249797 -0.00469377 0.000982384 0.00134817 0.000988347 0.00144964 0.000671744 0.000988347 0.000780476 0.0011658 0.000988347 0.00144964 0.0011658 0.00155111 0.00101804 -0.00242262 0.00100254 -0.0023915 0.00100254 -0.0023915 0.000965556 -0.00239955 0.000965556 -0.00239955 0.00091054 -0.00241538 0.00091054 -0.00241538 0.000849665 -0.00245687 -0.00469377 -0.00434024 -0.00464066 -0.00430146 -0.00434024 -0.00300003 -0.00430146 -0.00289774 -0.00464066 -0.00430146 -0.00458318 -0.00424733 -0.00430146 -0.00289774 -0.00424733 -0.00279545 -0.00360779 -0.00366582 -0.00356577 -0.00363168 -0.00366582 -0.00370315 -0.00363168 -0.00367391 -0.00356577 -0.00363168 -0.00344119 -0.00351704 -0.00363168 -0.00367391 -0.00351704 -0.00357415 -0.00458318 -0.00424733 -0.00452298 -0.00418308 -0.00424733 -0.00279545 -0.00418308 -0.00271115 -0.00452298 -0.00418308 -0.00446024 -0.00411575 -0.00418308 -0.00271115 -0.00411575 -0.00261668 -0.00301194 -0.00321749 -0.00282602 -0.00305479 -0.00321749 -0.00344119 -0.00305479 -0.00325053 -0.00282602 -0.00305479 -0.0026401 -0.0028244 -0.00305479 -0.00325053 -0.0028244 -0.00300869 0.00289928 0.00230956 0.00332013 0.00248212 0.00230956 0.000594055 0.00248212 0.000680438 0.00332013 0.00248212 0.00374098 0.00270985 0.00248212 0.000680438 0.00270985 0.000790977 -0.00344119 -0.00351704 -0.00325053 -0.00334474 -0.00351704 -0.00357415 -0.00334474 -0.00341683 -0.00325053 -0.00334474 -0.00300869 -0.00310714 -0.00334474 -0.00341683 -0.00310714 -0.00319507 0.000849665 -0.00245687 0.000782506 -0.00248804 -0.00245687 -0.004569 -0.00248804 -0.00460981 0.000782506 -0.00248804 0.000698718 -0.00251115 -0.00248804 -0.00460981 -0.00251115 -0.00469572 0.000520321 -0.00249333 0.000525765 -0.00252269 -0.00359315 -0.00147086 -0.00359333 -0.00150431 -0.00147086 0.00135981 -0.00150431 0.00120733 -0.00359333 -0.00150431 -0.00364113 -0.00155112 -0.00150431 0.00120733 -0.00155112 0.00111917 -0.00474955 -0.0044166 -0.00472033 -0.0044126 -0.0044166 -0.00313395 -0.0044126 -0.00312718 -0.00472033 -0.0044126 -0.00469249 -0.0043972 -0.0044126 -0.00312718 -0.0043972 -0.00312041 -0.00411844 -0.0027257 -0.00405592 -0.00264847 -0.00405592 -0.00264847 -0.0040387 -0.00255522 -0.00279545 -0.00244574 -0.00271115 -0.00222896 -0.00244574 -0.00209603 -0.00222896 -0.00180256 -0.00271115 -0.00222896 -0.00261668 -0.00203324 -0.00222896 -0.00180256 -0.00203324 -0.00150908 0.0105793 0.010532 0.00974862 0.00975359 0.010532 0.0104144 0.00975359 0.00971282 0.00974862 0.00975359 0.00888371 0.00892613 0.00975359 0.00971282 0.00892613 0.00896603 -0.00469249 -0.0043972 -0.00469452 -0.00437953 -0.0043972 -0.00312041 -0.00437953 -0.00306022 -0.00469452 -0.00437953 -0.00469377 -0.00434024 -0.00437953 -0.00306022 -0.00434024 -0.00300003 -0.0040387 -0.00255522 -0.00402402 -0.00252128 -0.00402402 -0.00252128 -0.00404578 -0.00248734 0.00878383 0.00878723 0.00968604 0.00963054 0.00878723 0.00879062 0.00963054 0.00954095 0.00968604 0.00963054 0.0105636 0.0104291 0.00963054 0.00954095 0.0104291 0.0102147 0.00720533 0.00718554 0.00799798 0.00782481 0.00799798 0.00782481 0.00879062 0.00841578 0.00879062 0.00841578 0.00954095 0.00893316 -8.28273e-06 -0.00270861 -0.000137787 -0.00272648 -0.00270861 -0.00419946 -0.00272648 -0.00419104 -0.000137787 -0.00272648 -0.000267291 -0.00275161 -0.00272648 -0.00419104 -0.00275161 -0.00418477 0.00223904 0.00210226 0.00226052 0.00214643 0.00210226 0.000507165 0.00214643 0.000542065 -0.00125747 0.00174613 -0.00130641 0.00152202 -0.00130641 0.00152202 -0.00147086 0.00135981 0.00309243 0.00340834 0.00280444 0.003146 0.00280444 0.003146 0.00259511 0.00288365 0.00259511 0.00288365 0.00244902 0.00274673 0.00120733 0.00244902 0.00111917 0.00236622 0.00244902 0.00274673 0.00236622 0.00269767 0.00437059 0.00113833 0.00446123 0.00111033 0.00446123 0.00111033 0.0044768 0.00101041 0.00216483 0.00415223 0.00222565 0.00442094 0.00222565 0.00442094 0.00225114 0.00467037 0.00225114 0.00467037 0.00225295 0.00487072 0.00467037 0.00607323 0.00487072 0.00650244 0.00225295 0.00487072 0.00223581 0.00503963 0.00487072 0.00650244 0.00503963 0.00689492 0.0044768 0.00101041 0.00438747 0.000901447 0.00438747 0.000901447 0.00426137 0.000797326 0.00270985 0.000790977 0.00296596 0.000904546 0.00296596 0.000904546 0.00328354 0.000996523 0.00223581 0.00503963 0.00220183 0.00518294 0.00503963 0.00689492 0.00518294 0.00727294 0.00220183 0.00518294 0.00215143 0.00528787 0.00518294 0.00727294 0.00528787 0.00761069 0.00215143 0.00528787 0.00211239 0.00534255 0.00528787 0.00761069 0.00534255 0.00789669 0.00211239 0.00534255 0.00201111 0.0053567 0.00534255 0.00789669 0.0053567 0.00810467 -0.00101834 0.00216483 -0.000978128 0.00222565 -0.000978128 0.00222565 -0.000969857 0.00225114 -0.000969857 0.00225114 -0.000957922 0.00225295 -0.000957922 0.00225295 -0.000959548 0.00223581 0.00467277 0.00328354 0.00515507 0.00361793 0.00328354 0.000996523 0.00361793 0.00107257 0.00515507 0.00361793 0.00563214 0.00393903 0.00361793 0.00107257 0.00393903 0.00112375 0.00393903 0.00112375 0.00418692 0.00115282 0.00418692 0.00115282 0.00437059 0.00113833 0.00199058 0.00528579 0.00212015 0.00531877 0.00528579 0.00796171 0.00531877 0.00782546 0.00212015 0.00531877 0.00218707 0.0053022 0.00531877 0.00782546 0.0053022 0.00760373 0.00218707 0.0053022 0.0022637 0.00523159 0.0053022 0.00760373 0.00523159 0.00731376 0.0022637 0.00523159 0.00232259 0.00512661 0.00523159 0.00731376 0.00512661 0.00697759 -0.00364113 -0.00155112 -0.00366119 -0.0015344 -0.00155112 0.00111917 -0.0015344 0.00114093 -0.00366119 -0.0015344 -0.0035938 -0.0014784 -0.0015344 0.00114093 -0.0014784 0.00125927 0.00896603 0.00856196 0.00817581 0.00794038 0.00817581 0.00794038 0.00736096 0.00727873 0.00432312 0.000782332 0.00439578 0.000880656 0.00439578 0.000880656 0.00445184 0.000926305 0.00445184 0.000926305 0.00439997 0.000995857 0.00439997 0.000995857 0.00427498 0.00101804 0.00111917 0.00236622 0.00114093 0.00238663 0.00236622 0.00269767 0.00238663 0.00272656 0.00114093 0.00238663 0.00125927 0.00251391 0.00238663 0.00272656 0.00251391 0.00284125 0.00369821 0.00262994 0.00327515 0.00242781 0.00262994 0.000698718 0.00242781 0.000639714 0.00327515 0.00242781 0.0028521 0.00228553 0.00242781 0.000639714 0.00228553 0.000603949 -0.000959548 0.00223581 -0.000969813 0.00220183 -0.000969813 0.00220183 -0.000984358 0.00215143 0.00232259 0.00512661 0.00236764 0.00498124 0.00512661 0.00697759 0.00498124 0.00661112 0.00236764 0.00498124 0.00240277 0.00478229 0.00427498 0.00101804 0.00407692 0.00100254 0.00407692 0.00100254 0.00382039 0.000965556 0.00560071 0.00382039 0.00511641 0.00350128 0.00382039 0.000965556 0.00350128 0.00091054 0.00511641 0.00350128 0.00462893 0.00317501 0.00350128 0.00091054 0.00317501 0.000849665 0.00240277 0.00478229 0.0023787 0.00454936 0.0023787 0.00454936 0.00231341 0.00428393 -0.000947242 0.00218707 -0.000914143 0.0022637 -0.000914143 0.0022637 -0.000885634 0.00232259 -0.0035938 -0.0014784 -0.00360086 -0.00142134 -0.0014784 0.00125927 -0.00142134 0.00141076 -0.00142134 0.00141076 -0.00130117 0.00157738 0.00251391 0.00284125 0.00268821 0.00308343 0.00268821 0.00308343 0.00295836 0.00332561 -0.000885634 0.00232259 -0.000866806 0.00236764 -0.000866806 0.00236764 -0.000870293 0.00240277 -0.000861358 0.0023787 -0.000913681 0.00231341 0.0028521 0.00228553 0.00256533 0.00213402 0.00256533 0.00213402 0.00227857 0.00204751 0.00227857 0.00204751 0.00217644 0.00196812 0.00217644 0.00196812 0.0020743 0.0019802 0.00317501 0.000849665 0.00286972 0.000782506 0.00286972 0.000782506 0.00262994 0.000698718 0.00888371 0.00892613 0.0080018 0.00808195 0.00892613 0.00896603 0.00808195 0.00817581 0.0080018 0.00808195 0.00710235 0.00723165 0.00808195 0.00817581 0.00723165 0.00736096 0.000723119 -0.00216648 0.000880548 -0.00213257 -0.00216648 -0.00360086 -0.00213257 -0.00350556 -0.0010167 0.00208048 -0.00113 0.00192759 -0.00340476 -0.00113 -0.0035177 -0.00125747 -0.00113 0.00192759 -0.00125747 0.00174613 0.000507165 -0.00221608 0.000542065 -0.00223383 -0.00221608 -0.00364113 -0.00223383 -0.00366119 0.00754565 0.00395093 0.00764741 0.00407837 0.00395093 0.0003562