# vtk DataFile Version 3.0
#This file was generated by the deal.II library on 2023/3/9 at 14:21:07
ASCII
DATASET UNSTRUCTURED_GRID

FIELD FieldData 2
CYCLE 1 1 int
48
TIME 1 1 double
0.096
POINTS 64 double
2 0 0
0 0 2
3 1 0
0 1 3
3 -1 0
0 -1 3
2 0 0
0 0 2
4 0 0
0 0 4
3 -1 0
0 -1 3
3 1 0
0 1 3
4 0 0
0 0 4
0 0 2
-2 0 0
0 1 3
-3 1 0
0 -1 3
-3 -1 0
0 0 2
-2 0 0
0 0 4
-4 0 0
0 -1 3
-3 -1 0
0 1 3
-3 1 0
0 0 4
-4 0 0
-2 0 0
0 0 -2
-3 1 0
0 1 -3
-3 -1 0
0 -1 -3
-2 0 0
0 0 -2
-4 0 0
0 0 -4
-3 -1 0
0 -1 -3
-3 1 0
0 1 -3
-4 0 0
0 0 -4
0 0 -2
2 0 0
0 1 -3
3 1 0
0 -1 -3
3 -1 0
0 0 -2
2 0 0
0 0 -4
4 0 0
0 -1 -3
3 -1 0
0 1 -3
3 1 0
0 0 -4
4 0 0

CELLS 16 80
4	0	1	3	2
4	4	5	7	6
4	8	9	11	10
4	12	13	15	14
4	16	17	19	18
4	20	21	23	22
4	24	25	27	26
4	28	29	31	30
4	32	33	35	34
4	36	37	39	38
4	40	41	43	42
4	44	45	47	46
4	48	49	51	50
4	52	53	55	54
4	56	57	59	58
4	60	61	63	62

CELL_TYPES 16
 9 9 9 9 9 9 9 9 9 9 9 9 9 9 9 9
POINT_DATA 64
SCALARS U double 1
LOOKUP_TABLE default
-47.5484 29.0834 25.0759 28.3746 25.0759 28.3746 -47.5484 29.0834 17.1167 27.8142 25.0759 28.3746 25.0759 28.3746 17.1167 27.8142 29.0834 32.8596 28.3746 -39.4875 28.3746 -39.4875 29.0834 32.8596 27.8142 -31.3655 28.3746 -39.4875 28.3746 -39.4875 27.8142 -31.3655 32.8596 29.0834 -39.4875 28.3746 -39.4875 28.3746 32.8596 29.0834 -31.3655 27.8142 -39.4875 28.3746 -39.4875 28.3746 -31.3655 27.8142 29.0834 -47.5484 28.3746 25.0759 28.3746 25.0759 29.0834 -47.5484 27.8142 17.1167 28.3746 25.0759 28.3746 25.0759 27.8142 17.1167 
