# vtk DataFile Version 3.0
#This file was generated by the deal.II library on 2023/3/8 at 18:39:26
ASCII
DATASET UNSTRUCTURED_GRID

FIELD FieldData 2
CYCLE 1 1 int
221
TIME 1 1 double
0.442
POINTS 1024 double
2 0 0
1.84776 1.22465e-16 0.765367
2.07612 0.382683 0
1.91809 0.382683 0.794497
1.84776 1.22465e-16 0.765367
1.41421 1.22465e-16 1.41421
1.91809 0.382683 0.794497
1.46804 0.382683 1.46804
2.07612 0.382683 0
1.91809 0.382683 0.794497
2.29289 0.707107 0
2.11836 0.707107 0.877452
1.91809 0.382683 0.794497
1.46804 0.382683 1.46804
2.11836 0.707107 0.877452
1.62132 0.707107 1.62132
1.41421 1.22465e-16 1.41421
0.765367 1.22465e-16 1.84776
1.46804 0.382683 1.46804
0.794497 0.382683 1.91809
0.765367 1.22465e-16 1.84776
0 0 2
0.794497 0.382683 1.91809
1.27126e-16 0.382683 2.07612
1.46804 0.382683 1.46804
0.794497 0.382683 1.91809
1.62132 0.707107 1.62132
0.877452 0.707107 2.11836
0.794497 0.382683 1.91809
1.27126e-16 0.382683 2.07612
0.877452 0.707107 2.11836
1.40399e-16 0.707107 2.29289
2.29289 0.707107 0
2.11836 0.707107 0.877452
2.61732 0.92388 0
2.41809 0.92388 1.0016
2.11836 0.707107 0.877452
1.62132 0.707107 1.62132
2.41809 0.92388 1.0016
1.85072 0.92388 1.85072
2.61732 0.92388 0
2.41809 0.92388 1.0016
3 1 0
2.77164 1 1.14805
2.41809 0.92388 1.0016
1.85072 0.92388 1.85072
2.77164 1 1.14805
2.12132 1 2.12132
1.62132 0.707107 1.62132
0.877452 0.707107 2.11836
1.85072 0.92388 1.85072
1.0016 0.92388 2.41809
0.877452 0.707107 2.11836
1.40399e-16 0.707107 2.29289
1.0016 0.92388 2.41809
1.60264e-16 0.92388 2.61732
1.85072 0.92388 1.85072
1.0016 0.92388 2.41809
2.12132 1 2.12132
1.14805 1 2.77164
1.0016 0.92388 2.41809
1.60264e-16 0.92388 2.61732
1.14805 1 2.77164
0 1 3
3 -1 0
2.77164 -1 1.14805
2.61732 -0.92388 0
2.41809 -0.92388 1.0016
2.77164 -1 1.14805
2.12132 -1 2.12132
2.41809 -0.92388 1.0016
1.85072 -0.92388 1.85072
2.61732 -0.92388 0
2.41809 -0.92388 1.0016
2.29289 -0.707107 0
2.11836 -0.707107 0.877452
2.41809 -0.92388 1.0016
1.85072 -0.92388 1.85072
2.11836 -0.707107 0.877452
1.62132 -0.707107 1.62132
2.12132 -1 2.12132
1.14805 -1 2.77164
1.85072 -0.92388 1.85072
1.0016 -0.92388 2.41809
1.14805 -1 2.77164
0 -1 3
1.0016 -0.92388 2.41809
1.60264e-16 -0.92388 2.61732
1.85072 -0.92388 1.85072
1.0016 -0.92388 2.41809
1.62132 -0.707107 1.62132
0.877452 -0.707107 2.11836
1.0016 -0.92388 2.41809
1.60264e-16 -0.92388 2.61732
0.877452 -0.707107 2.11836
1.40399e-16 -0.707107 2.29289
2.29289 -0.707107 0
2.11836 -0.707107 0.877452
2.07612 -0.382683 0
1.91809 -0.382683 0.794497
2.11836 -0.707107 0.877452
1.62132 -0.707107 1.62132
1.91809 -0.382683 0.794497
1.46804 -0.382683 1.46804
2.07612 -0.382683 0
1.91809 -0.382683 0.794497
2 0 0
1.84776 1.22465e-16 0.765367
1.91809 -0.382683 0.794497
1.46804 -0.382683 1.46804
1.84776 1.22465e-16 0.765367
1.41421 1.22465e-16 1.41421
1.62132 -0.707107 1.62132
0.877452 -0.707107 2.11836
1.46804 -0.382683 1.46804
0.794497 -0.382683 1.91809
0.877452 -0.707107 2.11836
1.40399e-16 -0.707107 2.29289
0.794497 -0.382683 1.91809
1.27126e-16 -0.382683 2.07612
1.46804 -0.382683 1.46804
0.794497 -0.382683 1.91809
1.41421 1.22465e-16 1.41421
0.765367 1.22465e-16 1.84776
0.794497 -0.382683 1.91809
1.27126e-16 -0.382683 2.07612
0.765367 1.22465e-16 1.84776
0 0 2
4 0 0
3.69552 0 1.53073
3.92388 -0.382683 0
3.62519 -0.382683 1.5016
3.69552 0 1.53073
2.82843 0 2.82843
3.62519 -0.382683 1.5016
2.7746 -0.382683 2.7746
3.92388 -0.382683 0
3.62519 -0.382683 1.5016
3.70711 -0.707107 0
3.42492 -0.707107 1.41865
3.62519 -0.382683 1.5016
2.7746 -0.382683 2.7746
3.42492 -0.707107 1.41865
2.62132 -0.707107 2.62132
2.82843 0 2.82843
1.53073 0 3.69552
2.7746 -0.382683 2.7746
1.5016 -0.382683 3.62519
1.53073 0 3.69552
0 0 4
1.5016 -0.382683 3.62519
2.40268e-16 -0.382683 3.92388
2.7746 -0.382683 2.7746
1.5016 -0.382683 3.62519
2.62132 -0.707107 2.62132
1.41865 -0.707107 3.42492
1.5016 -0.382683 3.62519
2.40268e-16 -0.382683 3.92388
1.41865 -0.707107 3.42492
2.26995e-16 -0.707107 3.70711
3.70711 -0.707107 0
3.42492 -0.707107 1.41865
3.38268 -0.92388 0
3.12519 -0.92388 1.2945
3.42492 -0.707107 1.41865
2.62132 -0.707107 2.62132
3.12519 -0.92388 1.2945
2.39192 -0.92388 2.39192
3.38268 -0.92388 0
3.12519 -0.92388 1.2945
3 -1 0
2.77164 -1 1.14805
3.12519 -0.92388 1.2945
2.39192 -0.92388 2.39192
2.77164 -1 1.14805
2.12132 -1 2.12132
2.62132 -0.707107 2.62132
1.41865 -0.707107 3.42492
2.39192 -0.92388 2.39192
1.2945 -0.92388 3.12519
1.41865 -0.707107 3.42492
2.26995e-16 -0.707107 3.70711
1.2945 -0.92388 3.12519
2.0713e-16 -0.92388 3.38268
2.39192 -0.92388 2.39192
1.2945 -0.92388 3.12519
2.12132 -1 2.12132
1.14805 -1 2.77164
1.2945 -0.92388 3.12519
2.0713e-16 -0.92388 3.38268
1.14805 -1 2.77164
0 -1 3
3 1 0
2.77164 1 1.14805
3.38268 0.92388 0
3.12519 0.92388 1.2945
2.77164 1 1.14805
2.12132 1 2.12132
3.12519 0.92388 1.2945
2.39192 0.92388 2.39192
3.38268 0.92388 0
3.12519 0.92388 1.2945
3.70711 0.707107 0
3.42492 0.707107 1.41865
3.12519 0.92388 1.2945
2.39192 0.92388 2.39192
3.42492 0.707107 1.41865
2.62132 0.707107 2.62132
2.12132 1 2.12132
1.14805 1 2.77164
2.39192 0.92388 2.39192
1.2945 0.92388 3.12519
1.14805 1 2.77164
0 1 3
1.2945 0.92388 3.12519
2.0713e-16 0.92388 3.38268
2.39192 0.92388 2.39192
1.2945 0.92388 3.12519
2.62132 0.707107 2.62132
1.41865 0.707107 3.42492
1.2945 0.92388 3.12519
2.0713e-16 0.92388 3.38268
1.41865 0.707107 3.42492
2.26995e-16 0.707107 3.70711
3.70711 0.707107 0
3.42492 0.707107 1.41865
3.92388 0.382683 0
3.62519 0.382683 1.5016
3.42492 0.707107 1.41865
2.62132 0.707107 2.62132
3.62519 0.382683 1.5016
2.7746 0.382683 2.7746
3.92388 0.382683 0
3.62519 0.382683 1.5016
4 0 0
3.69552 0 1.53073
3.62519 0.382683 1.5016
2.7746 0.382683 2.7746
3.69552 0 1.53073
2.82843 0 2.82843
2.62132 0.707107 2.62132
1.41865 0.707107 3.42492
2.7746 0.382683 2.7746
1.5016 0.382683 3.62519
1.41865 0.707107 3.42492
2.26995e-16 0.707107 3.70711
1.5016 0.382683 3.62519
2.40268e-16 0.382683 3.92388
2.7746 0.382683 2.7746
1.5016 0.382683 3.62519
2.82843 0 2.82843
1.53073 0 3.69552
1.5016 0.382683 3.62519
2.40268e-16 0.382683 3.92388
1.53073 0 3.69552
0 0 4
0 0 2
-0.765367 1.22465e-16 1.84776
1.27126e-16 0.382683 2.07612
-0.794497 0.382683 1.91809
-0.765367 1.22465e-16 1.84776
-1.41421 1.22465e-16 1.41421
-0.794497 0.382683 1.91809
-1.46804 0.382683 1.46804
1.27126e-16 0.382683 2.07612
-0.794497 0.382683 1.91809
1.40399e-16 0.707107 2.29289
-0.877452 0.707107 2.11836
-0.794497 0.382683 1.91809
-1.46804 0.382683 1.46804
-0.877452 0.707107 2.11836
-1.62132 0.707107 1.62132
-1.41421 1.22465e-16 1.41421
-1.84776 1.22465e-16 0.765367
-1.46804 0.382683 1.46804
-1.91809 0.382683 0.794497
-1.84776 1.22465e-16 0.765367
-2 0 0
-1.91809 0.382683 0.794497
-2.07612 0.382683 2.54251e-16
-1.46804 0.382683 1.46804
-1.91809 0.382683 0.794497
-1.62132 0.707107 1.62132
-2.11836 0.707107 0.877452
-1.91809 0.382683 0.794497
-2.07612 0.382683 2.54251e-16
-2.11836 0.707107 0.877452
-2.29289 0.707107 2.80798e-16
1.40399e-16 0.707107 2.29289
-0.877452 0.707107 2.11836
1.60264e-16 0.92388 2.61732
-1.0016 0.92388 2.41809
-0.877452 0.707107 2.11836
-1.62132 0.707107 1.62132
-1.0016 0.92388 2.41809
-1.85072 0.92388 1.85072
1.60264e-16 0.92388 2.61732
-1.0016 0.92388 2.41809
0 1 3
-1.14805 1 2.77164
-1.0016 0.92388 2.41809
-1.85072 0.92388 1.85072
-1.14805 1 2.77164
-2.12132 1 2.12132
-1.62132 0.707107 1.62132
-2.11836 0.707107 0.877452
-1.85072 0.92388 1.85072
-2.41809 0.92388 1.0016
-2.11836 0.707107 0.877452
-2.29289 0.707107 2.80798e-16
-2.41809 0.92388 1.0016
-2.61732 0.92388 3.20529e-16
-1.85072 0.92388 1.85072
-2.41809 0.92388 1.0016
-2.12132 1 2.12132
-2.77164 1 1.14805
-2.41809 0.92388 1.0016
-2.61732 0.92388 3.20529e-16
-2.77164 1 1.14805
-3 1 0
0 -1 3
-1.14805 -1 2.77164
1.60264e-16 -0.92388 2.61732
-1.0016 -0.92388 2.41809
-1.14805 -1 2.77164
-2.12132 -1 2.12132
-1.0016 -0.92388 2.41809
-1.85072 -0.92388 1.85072
1.60264e-16 -0.92388 2.61732
-1.0016 -0.92388 2.41809
1.40399e-16 -0.707107 2.29289
-0.877452 -0.707107 2.11836
-1.0016 -0.92388 2.41809
-1.85072 -0.92388 1.85072
-0.877452 -0.707107 2.11836
-1.62132 -0.707107 1.62132
-2.12132 -1 2.12132
-2.77164 -1 1.14805
-1.85072 -0.92388 1.85072
-2.41809 -0.92388 1.0016
-2.77164 -1 1.14805
-3 -1 0
-2.41809 -0.92388 1.0016
-2.61732 -0.92388 3.20529e-16
-1.85072 -0.92388 1.85072
-2.41809 -0.92388 1.0016
-1.62132 -0.707107 1.62132
-2.11836 -0.707107 0.877452
-2.41809 -0.92388 1.0016
-2.61732 -0.92388 3.20529e-16
-2.11836 -0.707107 0.877452
-2.29289 -0.707107 2.80798e-16
1.40399e-16 -0.707107 2.29289
-0.877452 -0.707107 2.11836
1.27126e-16 -0.382683 2.07612
-0.794497 -0.382683 1.91809
-0.877452 -0.707107 2.11836
-1.62132 -0.707107 1.62132
-0.794497 -0.382683 1.91809
-1.46804 -0.382683 1.46804
1.27126e-16 -0.382683 2.07612
-0.794497 -0.382683 1.91809
0 0 2
-0.765367 1.22465e-16 1.84776
-0.794497 -0.382683 1.91809
-1.46804 -0.382683 1.46804
-0.765367 1.22465e-16 1.84776
-1.41421 1.22465e-16 1.41421
-1.62132 -0.707107 1.62132
-2.11836 -0.707107 0.877452
-1.46804 -0.382683 1.46804
-1.91809 -0.382683 0.794497
-2.11836 -0.707107 0.877452
-2.29289 -0.707107 2.80798e-16
-1.91809 -0.382683 0.794497
-2.07612 -0.382683 2.54251e-16
-1.46804 -0.382683 1.46804
-1.91809 -0.382683 0.794497
-1.41421 1.22465e-16 1.41421
-1.84776 1.22465e-16 0.765367
-1.91809 -0.382683 0.794497
-2.07612 -0.382683 2.54251e-16
-1.84776 1.22465e-16 0.765367
-2 0 0
0 0 4
-1.53073 0 3.69552
2.40268e-16 -0.382683 3.92388
-1.5016 -0.382683 3.62519
-1.53073 0 3.69552
-2.82843 0 2.82843
-1.5016 -0.382683 3.62519
-2.7746 -0.382683 2.7746
2.40268e-16 -0.382683 3.92388
-1.5016 -0.382683 3.62519
2.26995e-16 -0.707107 3.70711
-1.41865 -0.707107 3.42492
-1.5016 -0.382683 3.62519
-2.7746 -0.382683 2.7746
-1.41865 -0.707107 3.42492
-2.62132 -0.707107 2.62132
-2.82843 0 2.82843
-3.69552 0 1.53073
-2.7746 -0.382683 2.7746
-3.62519 -0.382683 1.5016
-3.69552 0 1.53073
-4 0 0
-3.62519 -0.382683 1.5016
-3.92388 -0.382683 4.80537e-16
-2.7746 -0.382683 2.7746
-3.62519 -0.382683 1.5016
-2.62132 -0.707107 2.62132
-3.42492 -0.707107 1.41865
[...]
POINT_DATA 1024
SCALARS U double 1
LOOKUP_TABLE default
0.115579 0.115632 0.142609 0.142785 0.115632 0.112703 0.142785 0.139827 0.142609 0.142785 0.167809 0.168157 0.142785 0.139827 0.168157 0.165774 0.112703 0.0987138 0.139827 0.123668 0.0987138 0.0274006 0.123668 0.0433602 0.139827 0.123668 0.165774 0.149856 0.123668 0.0433602 0.149856 0.0596778 0.167809 0.168157 0.183723 0.184183 0.168157 0.165774 0.184183 0.182661 0.183723 0.184183 0.187901 0.188359 0.184183 0.182661 0.188359 0.187644 0.165774 0.149856 0.182661 0.168594 0.149856 0.0596778 0.168594 0.0705659 0.182661 0.168594 0.187644 0.176055 0.168594 0.0705659 0.176055 0.0729119 0.0171453 0.0171907 0.0194005 0.0194663 0.0171907 0.0170973 0.0194663 0.0188671 0.0194005 0.0194663 0.0364849 0.0365416 0.0194663 0.0188671 0.0365416 0.0352302 0.0170973 0.0134264 0.0188671 0.0141137 0.0134264 0.00386029 0.0141137 0.00554613 0.0188671 0.0141137 0.0352302 0.0278347 0.0141137 0.00554613 0.0278347 0.00960346 0.0364849 0.0365416 0.0849209 0.0849855 0.0365416 0.0352302 0.0849855 0.082602 0.0849209 0.0849855 0.115579 0.115632 0.0849855 0.082602 0.115632 0.112703 0.0352302 0.0278347 0.082602 0.0726937 0.0278347 0.00960346 0.0726937 0.015653 0.082602 0.0726937 0.112703 0.0987138 0.0726937 0.015653 0.0987138 0.0274006 0.115799 0.115971 0.0888036 0.0889704 0.115971 0.116145 0.0889704 0.0890347 0.0888036 0.0889704 0.0417257 0.0416774 0.0889704 0.0890347 0.0416774 0.0423285 0.116145 0.11267 0.0890347 0.0864804 0.11267 0.0155259 0.0864804 0.00686656 0.0890347 0.0864804 0.0423285 0.0374384 0.0864804 0.00686656 0.0374384 0.00571226 0.0417257 0.0416774 0.0224924 0.0224818 0.0416774 0.0423285 0.0224818 0.022849 0.0224924 0.0224818 0.0171453 0.0171907 0.0224818 0.022849 0.0171907 0.0170973 0.0423285 0.0374384 0.022849 0.018623 0.0374384 0.00571226 0.018623 0.00429048 0.022849 0.018623 0.0170973 0.0134264 0.018623 0.00429048 0.0134264 0.00386029 0.187901 0.188359 0.180786 0.181157 0.188359 0.187644 0.181157 0.181028 0.180786 0.181157 0.163384 0.163647 0.181157 0.181028 0.163647 0.163848 0.187644 0.176055 0.181028 0.171881 0.176055 0.0729119 0.171881 0.0660623 0.181028 0.171881 0.163848 0.156832 0.171881 0.0660623 0.156832 0.0507393 0.163384 0.163647 0.139491 0.139677 0.163647 0.163848 0.139677 0.139977 0.139491 0.139677 0.115799 0.115971 0.139677 0.139977 0.115971 0.116145 0.163848 0.156832 0.139977 0.134775 0.156832 0.0507393 0.134775 0.0315188 0.139977 0.134775 0.116145 0.11267 0.134775 0.0315188 0.11267 0.0155259 0.0274006 0.00668048 0.0433602 0.0102324 0.00668048 0.00016113 0.0102324 -4.51968e-05 0.0433602 0.0102324 0.0596778 0.0126283 0.0102324 -4.51968e-05 0.0126283 -0.000583785 0.00016113 -0.000115027 -4.51968e-05 -0.00013413 -0.000115027 2.34673e-05 -0.00013413 3.95582e-05 -4.51968e-05 -0.00013413 -0.000583785 -7.72496e-05 -0.00013413 3.95582e-05 -7.72496e-05 4.17865e-05 0.0596778 0.0126283 0.0705659 0.0124442 0.0126283 -0.000583785 0.0124442 -0.0011306 0.0705659 0.0124442 0.0729119 0.0100814 0.0124442 -0.0011306 0.0100814 -0.00136165 -0.000583785 -7.72496e-05 -0.0011306 4.66394e-05 -7.72496e-05 4.17865e-05 4.66394e-05 1.05669e-05 -0.0011306 4.66394e-05 -0.00136165 0.000162325 4.66394e-05 1.05669e-05 0.000162325 -3.64915e-05 0.00386029 9.22097e-05 0.00554613 0.000653917 9.22097e-05 -3.50003e-05 0.000653917 -5.20475e-05 0.00554613 0.000653917 0.00960346 0.00170271 0.000653917 -5.20475e-05 0.00170271 -1.56437e-05 -3.50003e-05 4.71032e-06 -5.20475e-05 -4.69244e-06 4.71032e-06 -1.79383e-06 -4.69244e-06 1.743e-06 -5.20475e-05 -4.69244e-06 -1.56437e-05 -2.7355e-05 -4.69244e-06 1.743e-06 -2.7355e-05 6.09086e-06 0.00960346 0.00170271 0.015653 0.00377466 0.00170271 -1.56437e-05 0.00377466 6.68802e-05 0.015653 0.00377466 0.0274006 0.00668048 0.00377466 6.68802e-05 0.00668048 0.00016113 -1.56437e-05 -2.7355e-05 6.68802e-05 -6.3504e-05 -2.7355e-05 6.09086e-06 -6.3504e-05 1.13921e-05 6.68802e-05 -6.3504e-05 0.00016113 -0.000115027 -6.3504e-05 1.13921e-05 -0.000115027 2.34673e-05 0.0155259 0.00103026 0.00686656 0.000444331 0.00103026 -0.000325391 0.000444331 -0.000187467 0.00686656 0.000444331 0.00571226 -0.000366626 0.000444331 -0.000187467 -0.000366626 1.39572e-05 -0.000325391 9.06557e-05 -0.000187467 6.13201e-05 9.06557e-05 -4.1391e-05 6.13201e-05 -3.07398e-05 -0.000187467 6.13201e-05 1.39572e-05 9.28892e-06 6.13201e-05 -3.07398e-05 9.28892e-06 -7.09865e-06 0.00571226 -0.000366626 0.00429048 -0.000278925 -0.000366626 1.39572e-05 -0.000278925 7.16136e-06 0.00429048 -0.000278925 0.00386029 9.22097e-05 -0.000278925 7.16136e-06 9.22097e-05 -3.50003e-05 1.39572e-05 9.28892e-06 7.16136e-06 5.48248e-06 9.28892e-06 -7.09865e-06 5.48248e-06 -4.03111e-06 7.16136e-06 5.48248e-06 -3.50003e-05 4.71032e-06 5.48248e-06 -4.03111e-06 4.71032e-06 -1.79383e-06 0.0729119 0.0100814 0.0660623 0.00690683 0.0100814 -0.00136165 0.00690683 -0.00123335 0.0660623 0.00690683 0.0507393 0.00406631 0.00690683 -0.00123335 0.00406631 -0.000901084 -0.00136165 0.000162325 -0.00123335 0.000210792 0.000162325 -3.64915e-05 0.000210792 -6.82119e-05 -0.00123335 0.000210792 -0.000901084 0.000189418 0.000210792 -6.82119e-05 0.000189418 -7.15731e-05 0.0507393 0.00406631 0.0315188 0.0021025 0.00406631 -0.000901084 0.0021025 -0.000557362 0.0315188 0.0021025 0.0155259 0.00103026 0.0021025 -0.000557362 0.00103026 -0.000325391 -0.000901084 0.000189418 -0.000557362 0.000135594 0.000189418 -7.15731e-05 0.000135594 -5.6532e-05 -0.000557362 0.000135594 -0.000325391 9.06557e-05 0.000135594 -5.6532e-05 9.06557e-05 -4.1391e-05 2.34673e-05 -0.000115029 3.95582e-05 -0.000134132 -0.000115029 0.000161122 -0.000134132 -4.5209e-05 3.95582e-05 -0.000134132 4.17865e-05 -7.72548e-05 -0.000134132 -4.5209e-05 -7.72548e-05 -0.000583798 0.000161122 0.00668048 -4.5209e-05 0.0102324 0.00668048 0.0274006 0.0102324 0.0433602 -4.5209e-05 0.0102324 -0.000583798 0.0126283 0.0102324 0.0433602 0.0126283 0.0596778 4.17865e-05 -7.72548e-05 1.05669e-05 4.66383e-05 -7.72548e-05 -0.000583798 4.66383e-05 -0.00113061 1.05669e-05 4.66383e-05 -3.64915e-05 0.00016233 4.66383e-05 -0.00113061 0.00016233 -0.00136165 -0.000583798 0.0126283 -0.00113061 0.0124442 0.0126283 0.0596778 0.0124442 0.0705658 -0.00113061 0.0124442 -0.00136165 0.0100814 0.0124442 0.0705658 0.0100814 0.0729119 -1.79383e-06 4.71194e-06 1.743e-06 -4.68872e-06 4.71194e-06 -3.49972e-05 -4.68872e-06 -5.20492e-05 1.743e-06 -4.68872e-06 6.09086e-06 -2.73554e-05 -4.68872e-06 -5.20492e-05 -2.73554e-05 -1.56388e-05 -3.49972e-05 9.22122e-05 -5.20492e-05 0.00065393 9.22122e-05 0.0038603 0.00065393 0.00554613 -5.20492e-05 0.00065393 -1.56388e-05 0.00170271 0.00065393 0.00554613 0.00170271 0.00960346 6.09086e-06 -2.73554e-05 1.13921e-05 -6.35034e-05 -2.73554e-05 -1.56388e-05 -6.35034e-05 6.68763e-05 1.13921e-05 -6.35034e-05 2.34673e-05 -0.000115029 -6.35034e-05 6.68763e-05 -0.000115029 0.000161122 -1.56388e-05 0.00170271 6.68763e-05 0.00377467 0.00170271 0.00960346 0.00377467 0.015653 6.68763e-05 0.00377467 0.000161122 0.00668048 0.00377467 0.015653 0.00668048 0.0274006 -4.1391e-05 9.06563e-05 -3.07398e-05 6.13236e-05 9.06563e-05 -0.000325388 6.13236e-05 -0.000187469 -3.07398e-05 6.13236e-05 -7.09865e-06 9.28743e-06 6.13236e-05 -0.000187469 9.28743e-06 1.39634e-05 -0.000325388 0.00103026 -0.000187469 0.000444325 0.00103026 0.0155259 0.000444325 0.00686657 -0.000187469 0.000444325 1.39634e-05 -0.000366634 0.000444325 0.00686657 -0.000366634 0.00571226 -7.09865e-06 9.28743e-06 -4.03111e-06 5.48426e-06 9.28743e-06 1.39634e-05 5.48426e-06 7.16063e-06 -4.03111e-06 5.48426e-06 -1.79383e-06 4.71194e-06 5.48426e-06 7.16063e-06 4.71194e-06 -3.49972e-05 1.39634e-05 -0.000366634 7.16063e-06 -0.000278923 -0.000366634 0.00571226 -0.000278923 0.00429048 7.16063e-06 -0.000278923 -3.49972e-05 9.22122e-05 -0.000278923 0.00429048 9.22122e-05 0.0038603 -3.64915e-05 0.00016233 -6.82119e-05 0.000210797 0.00016233 -0.00136165 0.000210797 -0.00123334 -6.82119e-05 0.000210797 -7.15731e-05 0.000189419 0.000210797 -0.00123334 0.000189419 -0.00090107 -0.00136165 0.0100814 -0.00123334 0.00690683 0.0100814 0.0729119 0.00690683 0.0660623 -0.00123334 0.00690683 -0.00090107 0.00406631 0.00690683 0.0660623 0.00406631 0.0507393 -7.15731e-05 0.000189419 -5.6532e-05 0.000135597 0.000189419 -0.00090107 0.000135597 -0.000557357 -5.6532e-05 0.000135597 -4.1391e-05 9.06563e-05 0.000135597 -0.000557357 9.06563e-05 -0.000325388 -0.00090107 0.00406631 -0.000557357 0.0021025 0.00406631 0.0507393 0.0021025 0.0315188 -0.000557357 0.0021025 -0.000325388 0.00103026 0.0021025 0.0315188 0.00103026 0.0155259 0.0274006 0.0987138 0.0433602 0.123668 0.0987138 0.112703 0.123668 0.139827 0.0433602 0.123668 0.0596778 0.149856 0.123668 0.139827 0.149856 0.165774 0.112703 0.115632 0.139827 0.142785 0.115632 0.115579 0.142785 0.142609 0.139827 0.142785 0.165774 0.168157 0.142785 0.142609 0.168157 0.167809 0.0596778 0.149856 0.0705658 0.168594 0.149856 0.165774 0.168594 0.182661 0.0705658 0.168594 0.0729119 0.176055 0.168594 0.182661 0.176055 0.187644 0.165774 0.168157 0.182661 0.184183 0.168157 0.167809 0.184183 0.183723 0.182661 0.184183 0.187644 0.188359 0.184183 0.183723 0.188359 0.187901 0.0038603 0.0134264 0.00554613 0.0141137 0.0134264 0.0170973 0.0141137 0.0188671 0.00554613 0.0141137 0.00960346 0.0278347 0.0141137 0.0188671 0.0278347 0.0352302 0.0170973 0.0171907 0.0188671 0.0194663 0.0171907 0.0171453 0.0194663 0.0194005 0.0188671 0.0194663 0.0352302 0.0365416 0.0194663 0.0194005 0.0365416 0.0364849 0.00960346 0.0278347 0.015653 0.0726937 0.0278347 0.0352302 0.0726937 0.082602 0.015653 0.0726937 0.0274006 0.0987138 0.0726937 0.082602 0.0987138 0.112703 0.0352302 0.0365416 0.082602 0.0849855 0.0365416 0.0364849 0.0849855 0.0849209 0.082602 0.0849855 0.112703 0.115632 0.0849855 0.0849209 0.115632 0.115579 0.0155259 0.112671 0.00686657 0.0864804 0.112671 0.116145 0.0864804 0.0890347 0.00686657 0.0864804 0.00571226 0.0374385 0.0864804 0.0890347 0.0374385 0.0423285 0.116145 0.115971 0.0890347 0.0889704 0.115971 0.115799 0.0889704 0.0888036 0.0890347 0.0889704 0.0423285 0.0416774 0.0889704 0.0888036 0.0416774 0.0417257 0.00571226 0.0374385 0.00429048 0.0186231 0.0374385 0.0423285 0.0186231 0.022849 0.00429048 0.0186231 0.0038603 0.0134264 0.0186231 0.022849 0.0134264 0.0170973 0.0423285 0.0416774 0.022849 0.0224818 0.0416774 0.0417257 0.0224818 0.0224924 0.022849 0.0224818 0.0170973 0.0171907 0.0224818 0.0224924 0.0171907 0.0171453 0.0729119 0.176055 0.0660623 0.171881 0.176055 0.187644 0.171881 0.181028 0.0660623 0.171881 0.0507393 0.156832 0.171881 0.181028 0.156832 0.163848 0.187644 0.188359 0.181028 0.181157 0.188359 0.187901 0.181157 0.180786 0.181028 0.181157 0.163848 0.163647 0.181157 0.180786 0.163647 0.163384 0.0507393 0.156832 0.0315188 0.134775 0.156832 0.163848 0.134775 0.139977 0.0315188 0.134775 0.0155259 0.112671 0.134775 0.139977 0.112671 0.116145 0.163848 0.163647 0.139977 0.139677 0.163647 0.163384 0.139677 0.139491 0.139977 0.139677 0.116145 0.115971 0.139677 0.139491 0.115971 0.115799 
