# vtk DataFile Version 3.0
#This file was generated by the deal.II library on 2023/3/8 at 18:39:26
ASCII
DATASET UNSTRUCTURED_GRID

FIELD FieldData 2
CYCLE 1 1 int
205
TIME 1 1 double
0.41
POINTS 1024 double
2 0 0
1.84776 1.22465e-16 0.765367
2.07612 0.382683 0
1.91809 0.382683 0.794497
1.84776 1.22465e-16 0.765367
1.41421 1.22465e-16 1.41421
1.91809 0.382683 0.794497
1.46804 0.382683 1.46804
2.07612 0.382683 0
1.91809 0.382683 0.794497
2.29289 0.707107 0
2.11836 0.707107 0.877452
1.91809 0.382683 0.794497
1.46804 0.382683 1.46804
2.11836 0.707107 0.877452
1.62132 0.707107 1.62132
1.41421 1.22465e-16 1.41421
0.765367 1.22465e-16 1.84776
1.46804 0.382683 1.46804
0.794497 0.382683 1.91809
0.765367 1.22465e-16 1.84776
0 0 2
0.794497 0.382683 1.91809
1.27126e-16 0.382683 2.07612
1.46804 0.382683 1.46804
0.794497 0.382683 1.91809
1.62132 0.707107 1.62132
0.877452 0.707107 2.11836
0.794497 0.382683 1.91809
1.27126e-16 0.382683 2.07612
0.877452 0.707107 2.11836
1.40399e-16 0.707107 2.29289
2.29289 0.707107 0
2.11836 0.707107 0.877452
2.61732 0.92388 0
2.41809 0.92388 1.0016
2.11836 0.707107 0.877452
1.62132 0.707107 1.62132
2.41809 0.92388 1.0016
1.85072 0.92388 1.85072
2.61732 0.92388 0
2.41809 0.92388 1.0016
3 1 0
2.77164 1 1.14805
2.41809 0.92388 1.0016
1.85072 0.92388 1.85072
2.77164 1 1.14805
2.12132 1 2.12132
1.62132 0.707107 1.62132
0.877452 0.707107 2.11836
1.85072 0.92388 1.85072
1.0016 0.92388 2.41809
0.877452 0.707107 2.11836
1.40399e-16 0.707107 2.29289
1.0016 0.92388 2.41809
1.60264e-16 0.92388 2.61732
1.85072 0.92388 1.85072
1.0016 0.92388 2.41809
2.12132 1 2.12132
1.14805 1 2.77164
1.0016 0.92388 2.41809
1.60264e-16 0.92388 2.61732
1.14805 1 2.77164
0 1 3
3 -1 0
2.77164 -1 1.14805
2.61732 -0.92388 0
2.41809 -0.92388 1.0016
2.77164 -1 1.14805
2.12132 -1 2.12132
2.41809 -0.92388 1.0016
1.85072 -0.92388 1.85072
2.61732 -0.92388 0
2.41809 -0.92388 1.0016
2.29289 -0.707107 0
2.11836 -0.707107 0.877452
2.41809 -0.92388 1.0016
1.85072 -0.92388 1.85072
2.11836 -0.707107 0.877452
1.62132 -0.707107 1.62132
2.12132 -1 2.12132
1.14805 -1 2.77164
1.85072 -0.92388 1.85072
1.0016 -0.92388 2.41809
1.14805 -1 2.77164
0 -1 3
1.0016 -0.92388 2.41809
1.60264e-16 -0.92388 2.61732
1.85072 -0.92388 1.85072
1.0016 -0.92388 2.41809
1.62132 -0.707107 1.62132
0.877452 -0.707107 2.11836
1.0016 -0.92388 2.41809
1.60264e-16 -0.92388 2.61732
0.877452 -0.707107 2.11836
1.40399e-16 -0.707107 2.29289
2.29289 -0.707107 0
2.11836 -0.707107 0.877452
2.07612 -0.382683 0
1.91809 -0.382683 0.794497
2.11836 -0.707107 0.877452
1.62132 -0.707107 1.62132
1.91809 -0.382683 0.794497
1.46804 -0.382683 1.46804
2.07612 -0.382683 0
1.91809 -0.382683 0.794497
2 0 0
1.84776 1.22465e-16 0.765367
1.91809 -0.382683 0.794497
1.46804 -0.382683 1.46804
1.84776 1.22465e-16 0.765367
1.41421 1.22465e-16 1.41421
1.62132 -0.707107 1.62132
0.877452 -0.707107 2.11836
1.46804 -0.382683 1.46804
0.794497 -0.382683 1.91809
0.877452 -0.707107 2.11836
1.40399e-16 -0.707107 2.29289
0.794497 -0.382683 1.91809
1.27126e-16 -0.382683 2.07612
1.46804 -0.382683 1.46804
0.794497 -0.382683 1.91809
1.41421 1.22465e-16 1.41421
0.765367 1.22465e-16 1.84776
0.794497 -0.382683 1.91809
1.27126e-16 -0.382683 2.07612
0.765367 1.22465e-16 1.84776
0 0 2
4 0 0
3.69552 0 1.53073
3.92388 -0.382683 0
3.62519 -0.382683 1.5016
3.69552 0 1.53073
2.82843 0 2.82843
3.62519 -0.382683 1.5016
2.7746 -0.382683 2.7746
3.92388 -0.382683 0
3.62519 -0.382683 1.5016
3.70711 -0.707107 0
3.42492 -0.707107 1.41865
3.62519 -0.382683 1.5016
2.7746 -0.382683 2.7746
3.42492 -0.707107 1.41865
2.62132 -0.707107 2.62132
2.82843 0 2.82843
1.53073 0 3.69552
2.7746 -0.382683 2.7746
1.5016 -0.382683 3.62519
1.53073 0 3.69552
0 0 4
1.5016 -0.382683 3.62519
2.40268e-16 -0.382683 3.92388
2.7746 -0.382683 2.7746
1.5016 -0.382683 3.62519
2.62132 -0.707107 2.62132
1.41865 -0.707107 3.42492
1.5016 -0.382683 3.62519
2.40268e-16 -0.382683 3.92388
1.41865 -0.707107 3.42492
2.26995e-16 -0.707107 3.70711
3.70711 -0.707107 0
3.42492 -0.707107 1.41865
3.38268 -0.92388 0
3.12519 -0.92388 1.2945
3.42492 -0.707107 1.41865
2.62132 -0.707107 2.62132
3.12519 -0.92388 1.2945
2.39192 -0.92388 2.39192
3.38268 -0.92388 0
3.12519 -0.92388 1.2945
3 -1 0
2.77164 -1 1.14805
3.12519 -0.92388 1.2945
2.39192 -0.92388 2.39192
2.77164 -1 1.14805
2.12132 -1 2.12132
2.62132 -0.707107 2.62132
1.41865 -0.707107 3.42492
2.39192 -0.92388 2.39192
1.2945 -0.92388 3.12519
1.41865 -0.707107 3.42492
2.26995e-16 -0.707107 3.70711
1.2945 -0.92388 3.12519
2.0713e-16 -0.92388 3.38268
2.39192 -0.92388 2.39192
1.2945 -0.92388 3.12519
2.12132 -1 2.12132
1.14805 -1 2.77164
1.2945 -0.92388 3.12519
2.0713e-16 -0.92388 3.38268
1.14805 -1 2.77164
0 -1 3
3 1 0
2.77164 1 1.14805
3.38268 0.92388 0
3.12519 0.92388 1.2945
2.77164 1 1.14805
2.12132 1 2.12132
3.12519 0.92388 1.2945
2.39192 0.92388 2.39192
3.38268 0.92388 0
3.12519 0.92388 1.2945
3.70711 0.707107 0
3.42492 0.707107 1.41865
3.12519 0.92388 1.2945
2.39192 0.92388 2.39192
3.42492 0.707107 1.41865
2.62132 0.707107 2.62132
2.12132 1 2.12132
1.14805 1 2.77164
2.39192 0.92388 2.39192
1.2945 0.92388 3.12519
1.14805 1 2.77164
0 1 3
1.2945 0.92388 3.12519
2.0713e-16 0.92388 3.38268
2.39192 0.92388 2.39192
1.2945 0.92388 3.12519
2.62132 0.707107 2.62132
1.41865 0.707107 3.42492
1.2945 0.92388 3.12519
2.0713e-16 0.92388 3.38268
1.41865 0.707107 3.42492
2.26995e-16 0.707107 3.70711
3.70711 0.707107 0
3.42492 0.707107 1.41865
3.92388 0.382683 0
3.62519 0.382683 1.5016
3.42492 0.707107 1.41865
2.62132 0.707107 2.62132
3.62519 0.382683 1.5016
2.7746 0.382683 2.7746
3.92388 0.382683 0
3.62519 0.382683 1.5016
4 0 0
3.69552 0 1.53073
3.62519 0.382683 1.5016
2.7746 0.382683 2.7746
3.69552 0 1.53073
2.82843 0 2.82843
2.62132 0.707107 2.62132
1.41865 0.707107 3.42492
2.7746 0.382683 2.7746
1.5016 0.382683 3.62519
1.41865 0.707107 3.42492
2.26995e-16 0.707107 3.70711
1.5016 0.382683 3.62519
2.40268e-16 0.382683 3.92388
2.7746 0.382683 2.7746
1.5016 0.382683 3.62519
2.82843 0 2.82843
1.53073 0 3.69552
1.5016 0.382683 3.62519
2.40268e-16 0.382683 3.92388
1.53073 0 3.69552
0 0 4
0 0 2
-0.765367 1.22465e-16 1.84776
1.27126e-16 0.382683 2.07612
-0.794497 0.382683 1.91809
-0.765367 1.22465e-16 1.84776
-1.41421 1.22465e-16 1.41421
-0.794497 0.382683 1.91809
-1.46804 0.382683 1.46804
1.27126e-16 0.382683 2.07612
-0.794497 0.382683 1.91809
1.40399e-16 0.707107 2.29289
-0.877452 0.707107 2.11836
-0.794497 0.382683 1.91809
-1.46804 0.382683 1.46804
-0.877452 0.707107 2.11836
-1.62132 0.707107 1.62132
-1.41421 1.22465e-16 1.41421
-1.84776 1.22465e-16 0.765367
-1.46804 0.382683 1.46804
-1.91809 0.382683 0.794497
-1.84776 1.22465e-16 0.765367
-2 0 0
-1.91809 0.382683 0.794497
-2.07612 0.382683 2.54251e-16
-1.46804 0.382683 1.46804
-1.91809 0.382683 0.794497
-1.62132 0.707107 1.62132
-2.11836 0.707107 0.877452
-1.91809 0.382683 0.794497
-2.07612 0.382683 2.54251e-16
-2.11836 0.707107 0.877452
-2.29289 0.707107 2.80798e-16
1.40399e-16 0.707107 2.29289
-0.877452 0.707107 2.11836
1.60264e-16 0.92388 2.61732
-1.0016 0.92388 2.41809
-0.877452 0.707107 2.11836
-1.62132 0.707107 1.62132
-1.0016 0.92388 2.41809
-1.85072 0.92388 1.85072
1.60264e-16 0.92388 2.61732
-1.0016 0.92388 2.41809
0 1 3
-1.14805 1 2.77164
-1.0016 0.92388 2.41809
-1.85072 0.92388 1.85072
-1.14805 1 2.77164
-2.12132 1 2.12132
-1.62132 0.707107 1.62132
-2.11836 0.707107 0.877452
-1.85072 0.92388 1.85072
-2.41809 0.92388 1.0016
-2.11836 0.707107 0.877452
-2.29289 0.707107 2.80798e-16
-2.41809 0.92388 1.0016
-2.61732 0.92388 3.20529e-16
-1.85072 0.92388 1.85072
-2.41809 0.92388 1.0016
-2.12132 1 2.12132
-2.77164 1 1.14805
-2.41809 0.92388 1.0016
-2.61732 0.92388 3.20529e-16
-2.77164 1 1.14805
-3 1 0
0 -1 3
-1.14805 -1 2.77164
1.60264e-16 -0.92388 2.61732
-1.0016 -0.92388 2.41809
-1.14805 -1 2.77164
-2.12132 -1 2.12132
-1.0016 -0.92388 2.41809
-1.85072 -0.92388 1.85072
1.60264e-16 -0.92388 2.61732
-1.0016 -0.92388 2.41809
1.40399e-16 -0.707107 2.29289
-0.877452 -0.707107 2.11836
-1.0016 -0.92388 2.41809
-1.85072 -0.92388 1.85072
-0.877452 -0.707107 2.11836
-1.62132 -0.707107 1.62132
-2.12132 -1 2.12132
-2.77164 -1 1.14805
-1.85072 -0.92388 1.85072
-2.41809 -0.92388 1.0016
-2.77164 -1 1.14805
-3 -1 0
-2.41809 -0.92388 1.0016
-2.61732 -0.92388 3.20529e-16
-1.85072 -0.92388 1.85072
-2.41809 -0.92388 1.0016
-1.62132 -0.707107 1.62132
-2.11836 -0.707107 0.877452
-2.41809 -0.92388 1.0016
-2.61732 -0.92388 3.20529e-16
-2.11836 -0.707107 0.877452
-2.29289 -0.707107 2.80798e-16
1.40399e-16 -0.707107 2.29289
-0.877452 -0.707107 2.11836
1.27126e-16 -0.382683 2.07612
-0.794497 -0.382683 1.91809
-0.877452 -0.707107 2.11836
-1.62132 -0.707107 1.62132
-0.794497 -0.382683 1.91809
-1.46804 -0.382683 1.46804
1.27126e-16 -0.382683 2.07612
-0.794497 -0.382683 1.91809
0 0 2
-0.765367 1.22465e-16 1.84776
-0.794497 -0.382683 1.91809
-1.46804 -0.382683 1.46804
-0.765367 1.22465e-16 1.84776
-1.41421 1.22465e-16 1.41421
-1.62132 -0.707107 1.62132
-2.11836 -0.707107 0.877452
-1.46804 -0.382683 1.46804
-1.91809 -0.382683 0.794497
-2.11836 -0.707107 0.877452
-2.29289 -0.707107 2.80798e-16
-1.91809 -0.382683 0.794497
-2.07612 -0.382683 2.54251e-16
-1.46804 -0.382683 1.46804
-1.91809 -0.382683 0.794497
-1.41421 1.22465e-16 1.41421
-1.84776 1.22465e-16 0.765367
-1.91809 -0.382683 0.794497
-2.07612 -0.382683 2.54251e-16
-1.84776 1.22465e-16 0.765367
-2 0 0
0 0 4
-1.53073 0 3.69552
2.40268e-16 -0.382683 3.92388
-1.5016 -0.382683 3.62519
-1.53073 0 3.69552
-2.82843 0 2.82843
-1.5016 -0.382683 3.62519
-2.7746 -0.382683 2.7746
2.40268e-16 -0.382683 3.92388
-1.5016 -0.382683 3.62519
2.26995e-16 -0.707107 3.70711
-1.41865 -0.707107 3.42492
-1.5016 -0.382683 3.62519
-2.7746 -0.382683 2.7746
-1.41865 -0.707107 3.42492
-2.62132 -0.707107 2.62132
-2.82843 0 2.82843
-3.69552 0 1.53073
-2.7746 -0.382683 2.7746
-3.62519 -0.382683 1.5016
-3.69552 0 1.53073
-4 0 0
-3.62519 -0.382683 1.5016
-3.92388 -0.382683 4.80537e-16
-2.7746 -0.382683 2.7746
-3.62519 -0.382683 1.5016
-2.62132 -0.707107 2.62132
-3.42492 -0.707107 1.41865
[...]
POINT_DATA 1024
SCALARS U double 1
LOOKUP_TABLE default
0.0848311 0.0851316 0.113299 0.11369 0.0851316 0.0824573 0.11369 0.111095 0.113299 0.11369 0.140485 0.140945 0.11369 0.111095 0.140945 0.139082 0.0824573 0.0685084 0.111095 0.0949683 0.0685084 0.0255993 0.0949683 0.0427375 0.111095 0.0949683 0.139082 0.122867 0.0949683 0.0427375 0.122867 0.062036 0.140485 0.140945 0.157128 0.157561 0.140945 0.139082 0.157561 0.156718 0.157128 0.157561 0.16134 0.161643 0.157561 0.156718 0.161643 0.161724 0.139082 0.122867 0.156718 0.141797 0.122867 0.062036 0.141797 0.0746764 0.156718 0.141797 0.161724 0.148697 0.141797 0.0746764 0.148697 0.0776565 0.0149533 0.0149877 0.0181579 0.0182258 0.0149877 0.014966 0.0182258 0.0177825 0.0181579 0.0182258 0.0301315 0.0302237 0.0182258 0.0177825 0.0302237 0.0292117 0.014966 0.0118208 0.0177825 0.0135242 0.0118208 0.00319522 0.0135242 0.00482372 0.0177825 0.0135242 0.0292117 0.0219229 0.0135242 0.00482372 0.0219229 0.00898305 0.0301315 0.0302237 0.0611202 0.0613697 0.0302237 0.0292117 0.0613697 0.0592172 0.0611202 0.0613697 0.0848311 0.0851316 0.0613697 0.0592172 0.0851316 0.0824573 0.0292117 0.0219229 0.0592172 0.0493078 0.0219229 0.00898305 0.0493078 0.0145513 0.0592172 0.0493078 0.0824573 0.0685084 0.0493078 0.0145513 0.0685084 0.0255993 0.0853548 0.0852377 0.0646358 0.0645831 0.0852377 0.0862545 0.0645831 0.0652871 0.0646358 0.0645831 0.0347193 0.0345982 0.0645831 0.0652871 0.0345982 0.035407 0.0862545 0.0802242 0.0652871 0.0608128 0.0802242 0.0157767 0.0608128 0.00733471 0.0652871 0.0608128 0.035407 0.0305376 0.0608128 0.00733471 0.0305376 0.00528697 0.0347193 0.0345982 0.0212888 0.0212651 0.0345982 0.035407 0.0212651 0.0216327 0.0212888 0.0212651 0.0149533 0.0149877 0.0212651 0.0216327 0.0149877 0.014966 0.035407 0.0305376 0.0216327 0.0180853 0.0305376 0.00528697 0.0180853 0.00350304 0.0216327 0.0180853 0.014966 0.0118208 0.0180853 0.00350304 0.0118208 0.00319522 0.16134 0.161643 0.154666 0.1548 0.161643 0.161724 0.1548 0.155518 0.154666 0.1548 0.136524 0.136508 0.1548 0.155518 0.136508 0.137565 0.161724 0.148697 0.155518 0.144493 0.148697 0.0776565 0.144493 0.0713029 0.155518 0.144493 0.137565 0.128391 0.144493 0.0713029 0.128391 0.0547618 0.136524 0.136508 0.110577 0.110472 0.136508 0.137565 0.110472 0.111612 0.110577 0.110472 0.0853548 0.0852377 0.110472 0.111612 0.0852377 0.0862545 0.137565 0.128391 0.111612 0.104084 0.128391 0.0547618 0.104084 0.0327719 0.111612 0.104084 0.0862545 0.0802242 0.104084 0.0327719 0.0802242 0.0157767 0.0255993 0.00560354 0.0427375 0.00872178 0.00560354 -7.00824e-05 0.00872178 -0.000318034 0.0427375 0.00872178 0.062036 0.0107262 0.00872178 -0.000318034 0.0107262 -0.00080437 -7.00824e-05 -5.57585e-05 -0.000318034 -5.08976e-05 -5.57585e-05 3.19684e-06 -5.08976e-05 7.61354e-06 -0.000318034 -5.08976e-05 -0.00080437 1.99095e-05 -5.08976e-05 7.61354e-06 1.99095e-05 -3.26839e-06 0.062036 0.0107262 0.0746764 0.0101362 0.0107262 -0.00080437 0.0101362 -0.00115826 0.0746764 0.0101362 0.0776565 0.00759095 0.0101362 -0.00115826 0.00759095 -0.00117094 -0.00080437 1.99095e-05 -0.00115826 0.000115168 1.99095e-05 -3.26839e-06 0.000115168 -3.03437e-05 -0.00115826 0.000115168 -0.00117094 0.00017452 0.000115168 -3.03437e-05 0.00017452 -5.57019e-05 0.00319522 8.31139e-06 0.00482372 0.000458233 8.31139e-06 -2.61896e-05 0.000458233 -5.82024e-05 0.00482372 0.000458233 0.00898305 0.00127767 0.000458233 -5.82024e-05 0.00127767 -5.80166e-05 -2.61896e-05 4.03468e-06 -5.82024e-05 -1.29914e-06 4.03468e-06 -1.31312e-06 -1.29914e-06 1.61962e-06 -5.82024e-05 -1.29914e-06 -5.80166e-05 -1.62132e-05 -1.29914e-06 1.61962e-06 -1.62132e-05 4.48112e-06 0.00898305 0.00127767 0.0145513 0.00312732 0.00127767 -5.80166e-05 0.00312732 -8.8009e-05 0.0145513 0.00312732 0.0255993 0.00560354 0.00312732 -8.8009e-05 0.00560354 -7.00824e-05 -5.80166e-05 -1.62132e-05 -8.8009e-05 -2.3229e-05 -1.62132e-05 4.48112e-06 -2.3229e-05 -2.41456e-06 -8.8009e-05 -2.3229e-05 -7.00824e-05 -5.57585e-05 -2.3229e-05 -2.41456e-06 -5.57585e-05 3.19684e-06 0.0157767 7.96112e-05 0.00733471 -0.000182162 7.96112e-05 -9.83614e-05 -0.000182162 -3.02469e-05 0.00733471 -0.000182162 0.00528697 -0.000545168 -0.000182162 -3.02469e-05 -0.000545168 6.73249e-05 -9.83614e-05 3.73805e-05 -3.02469e-05 2.3644e-05 3.73805e-05 -1.93187e-05 2.3644e-05 -1.51874e-05 -3.02469e-05 2.3644e-05 6.73249e-05 -3.8752e-06 2.3644e-05 -1.51874e-05 -3.8752e-06 -1.80775e-06 0.00528697 -0.000545168 0.00350304 -0.000302483 -0.000545168 6.73249e-05 -0.000302483 1.88424e-05 0.00350304 -0.000302483 0.00319522 8.31139e-06 -0.000302483 1.88424e-05 8.31139e-06 -2.61896e-05 6.73249e-05 -3.8752e-06 1.88424e-05 2.93343e-06 -3.8752e-06 -1.80775e-06 2.93343e-06 -3.12861e-06 1.88424e-05 2.93343e-06 -2.61896e-05 4.03468e-06 2.93343e-06 -3.12861e-06 4.03468e-06 -1.31312e-06 0.0776565 0.00759095 0.0713029 0.00457181 0.00759095 -0.00117094 0.00457181 -0.000914472 0.0713029 0.00457181 0.0547618 0.00216452 0.00457181 -0.000914472 0.00216452 -0.000562266 -0.00117094 0.00017452 -0.000914472 0.000176175 0.00017452 -5.57019e-05 0.000176175 -6.49449e-05 -0.000914472 0.000176175 -0.000562266 0.000131725 0.000176175 -6.49449e-05 0.000131725 -5.40235e-05 0.0547618 0.00216452 0.0327719 0.000761517 0.00216452 -0.000562266 0.000761517 -0.000272811 0.0327719 0.000761517 0.0157767 7.96112e-05 0.000761517 -0.000272811 7.96112e-05 -9.83614e-05 -0.000562266 0.000131725 -0.000272811 7.59371e-05 0.000131725 -5.40235e-05 7.59371e-05 -3.38809e-05 -0.000272811 7.59371e-05 -9.83614e-05 3.73805e-05 7.59371e-05 -3.38809e-05 3.73805e-05 -1.93187e-05 3.19684e-06 -5.57604e-05 7.61354e-06 -5.09001e-05 -5.57604e-05 -7.00891e-05 -5.09001e-05 -0.000318048 7.61354e-06 -5.09001e-05 -3.26839e-06 1.99049e-05 -5.09001e-05 -0.000318048 1.99049e-05 -0.000804384 -7.00891e-05 0.00560354 -0.000318048 0.00872177 0.00560354 0.0255993 0.00872177 0.0427375 -0.000318048 0.00872177 -0.000804384 0.0107262 0.00872177 0.0427375 0.0107262 0.062036 -3.26839e-06 1.99049e-05 -3.03437e-05 0.000115168 1.99049e-05 -0.000804384 0.000115168 -0.00115827 -3.03437e-05 0.000115168 -5.57019e-05 0.000174524 0.000115168 -0.00115827 0.000174524 -0.00117093 -0.000804384 0.0107262 -0.00115827 0.0101361 0.0107262 0.062036 0.0101361 0.0746764 -0.00115827 0.0101361 -0.00117093 0.00759095 0.0101361 0.0746764 0.00759095 0.0776565 -1.31312e-06 4.03588e-06 1.61962e-06 -1.29656e-06 4.03588e-06 -2.61868e-05 -1.29656e-06 -5.82041e-05 1.61962e-06 -1.29656e-06 4.48112e-06 -1.62135e-05 -1.29656e-06 -5.82041e-05 -1.62135e-05 -5.8012e-05 -2.61868e-05 8.31414e-06 -5.82041e-05 0.000458246 8.31414e-06 0.00319522 0.000458246 0.00482372 -5.82041e-05 0.000458246 -5.8012e-05 0.00127767 0.000458246 0.00482372 0.00127767 0.00898304 4.48112e-06 -1.62135e-05 -2.41456e-06 -2.32264e-05 -1.62135e-05 -5.8012e-05 -2.32264e-05 -8.80115e-05 -2.41456e-06 -2.32264e-05 3.19684e-06 -5.57604e-05 -2.32264e-05 -8.80115e-05 -5.57604e-05 -7.00891e-05 -5.8012e-05 0.00127767 -8.80115e-05 0.00312732 0.00127767 0.00898304 0.00312732 0.0145513 -8.80115e-05 0.00312732 -7.00891e-05 0.00560354 0.00312732 0.0145513 0.00560354 0.0255993 -1.93187e-05 3.73799e-05 -1.51874e-05 2.36474e-05 3.73799e-05 -9.83588e-05 2.36474e-05 -3.02494e-05 -1.51874e-05 2.36474e-05 -1.80775e-06 -3.87624e-06 2.36474e-05 -3.02494e-05 -3.87624e-06 6.73303e-05 -9.83588e-05 7.96064e-05 -3.02494e-05 -0.000182165 7.96064e-05 0.0157767 -0.000182165 0.00733472 -3.02494e-05 -0.000182165 6.73303e-05 -0.000545176 -0.000182165 0.00733472 -0.000545176 0.00528697 -1.80775e-06 -3.87624e-06 -3.12861e-06 2.93419e-06 -3.87624e-06 6.73303e-05 2.93419e-06 1.88432e-05 -3.12861e-06 2.93419e-06 -1.31312e-06 4.03588e-06 2.93419e-06 1.88432e-05 4.03588e-06 -2.61868e-05 6.73303e-05 -0.000545176 1.88432e-05 -0.000302483 -0.000545176 0.00528697 -0.000302483 0.00350304 1.88432e-05 -0.000302483 -2.61868e-05 8.31414e-06 -0.000302483 0.00350304 8.31414e-06 0.00319522 -5.57019e-05 0.000174524 -6.49449e-05 0.00017618 0.000174524 -0.00117093 0.00017618 -0.000914463 -6.49449e-05 0.00017618 -5.40235e-05 0.000131726 0.00017618 -0.000914463 0.000131726 -0.000562252 -0.00117093 0.00759095 -0.000914463 0.00457181 0.00759095 0.0776565 0.00457181 0.0713029 -0.000914463 0.00457181 -0.000562252 0.00216451 0.00457181 0.0713029 0.00216451 0.0547618 -5.40235e-05 0.000131726 -3.38809e-05 7.59392e-05 0.000131726 -0.000562252 7.59392e-05 -0.000272807 -3.38809e-05 7.59392e-05 -1.93187e-05 3.73799e-05 7.59392e-05 -0.000272807 3.73799e-05 -9.83588e-05 -0.000562252 0.00216451 -0.000272807 0.000761516 0.00216451 0.0547618 0.000761516 0.0327719 -0.000272807 0.000761516 -9.83588e-05 7.96064e-05 0.000761516 0.0327719 7.96064e-05 0.0157767 0.0255993 0.0685084 0.0427375 0.0949683 0.0685084 0.0824573 0.0949683 0.111095 0.0427375 0.0949683 0.062036 0.122867 0.0949683 0.111095 0.122867 0.139082 0.0824573 0.0851315 0.111095 0.11369 0.0851315 0.0848311 0.11369 0.113299 0.111095 0.11369 0.139082 0.140945 0.11369 0.113299 0.140945 0.140485 0.062036 0.122867 0.0746764 0.141797 0.122867 0.139082 0.141797 0.156718 0.0746764 0.141797 0.0776565 0.148697 0.141797 0.156718 0.148697 0.161724 0.139082 0.140945 0.156718 0.157561 0.140945 0.140485 0.157561 0.157128 0.156718 0.157561 0.161724 0.161643 0.157561 0.157128 0.161643 0.16134 0.00319522 0.0118209 0.00482372 0.0135242 0.0118209 0.014966 0.0135242 0.0177825 0.00482372 0.0135242 0.00898304 0.0219229 0.0135242 0.0177825 0.0219229 0.0292117 0.014966 0.0149877 0.0177825 0.0182258 0.0149877 0.0149533 0.0182258 0.0181579 0.0177825 0.0182258 0.0292117 0.0302237 0.0182258 0.0181579 0.0302237 0.0301315 0.00898304 0.0219229 0.0145513 0.0493078 0.0219229 0.0292117 0.0493078 0.0592172 0.0145513 0.0493078 0.0255993 0.0685084 0.0493078 0.0592172 0.0685084 0.0824573 0.0292117 0.0302237 0.0592172 0.0613697 0.0302237 0.0301315 0.0613697 0.0611202 0.0592172 0.0613697 0.0824573 0.0851315 0.0613697 0.0611202 0.0851315 0.0848311 0.0157767 0.0802242 0.00733472 0.0608128 0.0802242 0.0862545 0.0608128 0.0652871 0.00733472 0.0608128 0.00528697 0.0305376 0.0608128 0.0652871 0.0305376 0.035407 0.0862545 0.0852377 0.0652871 0.0645831 0.0852377 0.0853548 0.0645831 0.0646358 0.0652871 0.0645831 0.035407 0.0345982 0.0645831 0.0646358 0.0345982 0.0347193 0.00528697 0.0305376 0.00350304 0.0180854 0.0305376 0.035407 0.0180854 0.0216327 0.00350304 0.0180854 0.00319522 0.0118209 0.0180854 0.0216327 0.0118209 0.014966 0.035407 0.0345982 0.0216327 0.0212651 0.0345982 0.0347193 0.0212651 0.0212888 0.0216327 0.0212651 0.014966 0.0149877 0.0212651 0.0212888 0.0149877 0.0149533 0.0776565 0.148697 0.0713029 0.144493 0.148697 0.161724 0.144493 0.155518 0.0713029 0.144493 0.0547618 0.128391 0.144493 0.155518 0.128391 0.137565 0.161724 0.161643 0.155518 0.154799 0.161643 0.16134 0.154799 0.154666 0.155518 0.154799 0.137565 0.136508 0.154799 0.154666 0.136508 0.136524 0.0547618 0.128391 0.0327719 0.104084 0.128391 0.137565 0.104084 0.111612 0.0327719 0.104084 0.0157767 0.0802242 0.104084 0.111612 0.0802242 0.0862545 0.137565 0.136508 0.111612 0.110472 0.136508 0.136524 0.110472 0.110577 0.111612 0.110472 0.0862545 0.0852377 0.110472 0.110577 0.0852377 0.0853548 
