# vtk DataFile Version 3.0
#This file was generated by the deal.II library on 2023/3/8 at 18:39:23
ASCII
DATASET UNSTRUCTURED_GRID

FIELD FieldData 2
CYCLE 1 1 int
98
TIME 1 1 double
0.196
POINTS 1024 double
2 0 0
1.84776 1.22465e-16 0.765367
2.07612 0.382683 0
1.91809 0.382683 0.794497
1.84776 1.22465e-16 0.765367
1.41421 1.22465e-16 1.41421
1.91809 0.382683 0.794497
1.46804 0.382683 1.46804
2.07612 0.382683 0
1.91809 0.382683 0.794497
2.29289 0.707107 0
2.11836 0.707107 0.877452
1.91809 0.382683 0.794497
1.46804 0.382683 1.46804
2.11836 0.707107 0.877452
1.62132 0.707107 1.62132
1.41421 1.22465e-16 1.41421
0.765367 1.22465e-16 1.84776
1.46804 0.382683 1.46804
0.794497 0.382683 1.91809
0.765367 1.22465e-16 1.84776
0 0 2
0.794497 0.382683 1.91809
1.27126e-16 0.382683 2.07612
1.46804 0.382683 1.46804
0.794497 0.382683 1.91809
1.62132 0.707107 1.62132
0.877452 0.707107 2.11836
0.794497 0.382683 1.91809
1.27126e-16 0.382683 2.07612
0.877452 0.707107 2.11836
1.40399e-16 0.707107 2.29289
2.29289 0.707107 0
2.11836 0.707107 0.877452
2.61732 0.92388 0
2.41809 0.92388 1.0016
2.11836 0.707107 0.877452
1.62132 0.707107 1.62132
2.41809 0.92388 1.0016
1.85072 0.92388 1.85072
2.61732 0.92388 0
2.41809 0.92388 1.0016
3 1 0
2.77164 1 1.14805
2.41809 0.92388 1.0016
1.85072 0.92388 1.85072
2.77164 1 1.14805
2.12132 1 2.12132
1.62132 0.707107 1.62132
0.877452 0.707107 2.11836
1.85072 0.92388 1.85072
1.0016 0.92388 2.41809
0.877452 0.707107 2.11836
1.40399e-16 0.707107 2.29289
1.0016 0.92388 2.41809
1.60264e-16 0.92388 2.61732
1.85072 0.92388 1.85072
1.0016 0.92388 2.41809
2.12132 1 2.12132
1.14805 1 2.77164
1.0016 0.92388 2.41809
1.60264e-16 0.92388 2.61732
1.14805 1 2.77164
0 1 3
3 -1 0
2.77164 -1 1.14805
2.61732 -0.92388 0
2.41809 -0.92388 1.0016
2.77164 -1 1.14805
2.12132 -1 2.12132
2.41809 -0.92388 1.0016
1.85072 -0.92388 1.85072
2.61732 -0.92388 0
2.41809 -0.92388 1.0016
2.29289 -0.707107 0
2.11836 -0.707107 0.877452
2.41809 -0.92388 1.0016
1.85072 -0.92388 1.85072
2.11836 -0.707107 0.877452
1.62132 -0.707107 1.62132
2.12132 -1 2.12132
1.14805 -1 2.77164
1.85072 -0.92388 1.85072
1.0016 -0.92388 2.41809
1.14805 -1 2.77164
0 -1 3
1.0016 -0.92388 2.41809
1.60264e-16 -0.92388 2.61732
1.85072 -0.92388 1.85072
1.0016 -0.92388 2.41809
1.62132 -0.707107 1.62132
0.877452 -0.707107 2.11836
1.0016 -0.92388 2.41809
1.60264e-16 -0.92388 2.61732
0.877452 -0.707107 2.11836
1.40399e-16 -0.707107 2.29289
2.29289 -0.707107 0
2.11836 -0.707107 0.877452
2.07612 -0.382683 0
1.91809 -0.382683 0.794497
2.11836 -0.707107 0.877452
1.62132 -0.707107 1.62132
1.91809 -0.382683 0.794497
1.46804 -0.382683 1.46804
2.07612 -0.382683 0
1.91809 -0.382683 0.794497
2 0 0
1.84776 1.22465e-16 0.765367
1.91809 -0.382683 0.794497
1.46804 -0.382683 1.46804
1.84776 1.22465e-16 0.765367
1.41421 1.22465e-16 1.41421
1.62132 -0.707107 1.62132
0.877452 -0.707107 2.11836
1.46804 -0.382683 1.46804
0.794497 -0.382683 1.91809
0.877452 -0.707107 2.11836
1.40399e-16 -0.707107 2.29289
0.794497 -0.382683 1.91809
1.27126e-16 -0.382683 2.07612
1.46804 -0.382683 1.46804
0.794497 -0.382683 1.91809
1.41421 1.22465e-16 1.41421
0.765367 1.22465e-16 1.84776
0.794497 -0.382683 1.91809
1.27126e-16 -0.382683 2.07612
0.765367 1.22465e-16 1.84776
0 0 2
4 0 0
3.69552 0 1.53073
3.92388 -0.382683 0
3.62519 -0.382683 1.5016
3.69552 0 1.53073
2.82843 0 2.82843
3.62519 -0.382683 1.5016
2.7746 -0.382683 2.7746
3.92388 -0.382683 0
3.62519 -0.382683 1.5016
3.70711 -0.707107 0
3.42492 -0.707107 1.41865
3.62519 -0.382683 1.5016
2.7746 -0.382683 2.7746
3.42492 -0.707107 1.41865
2.62132 -0.707107 2.62132
2.82843 0 2.82843
1.53073 0 3.69552
2.7746 -0.382683 2.7746
1.5016 -0.382683 3.62519
1.53073 0 3.69552
0 0 4
1.5016 -0.382683 3.62519
2.40268e-16 -0.382683 3.92388
2.7746 -0.382683 2.7746
1.5016 -0.382683 3.62519
2.62132 -0.707107 2.62132
1.41865 -0.707107 3.42492
1.5016 -0.382683 3.62519
2.40268e-16 -0.382683 3.92388
1.41865 -0.707107 3.42492
2.26995e-16 -0.707107 3.70711
3.70711 -0.707107 0
3.42492 -0.707107 1.41865
3.38268 -0.92388 0
3.12519 -0.92388 1.2945
3.42492 -0.707107 1.41865
2.62132 -0.707107 2.62132
3.12519 -0.92388 1.2945
2.39192 -0.92388 2.39192
3.38268 -0.92388 0
3.12519 -0.92388 1.2945
3 -1 0
2.77164 -1 1.14805
3.12519 -0.92388 1.2945
2.39192 -0.92388 2.39192
2.77164 -1 1.14805
2.12132 -1 2.12132
2.62132 -0.707107 2.62132
1.41865 -0.707107 3.42492
2.39192 -0.92388 2.39192
1.2945 -0.92388 3.12519
1.41865 -0.707107 3.42492
2.26995e-16 -0.707107 3.70711
1.2945 -0.92388 3.12519
2.0713e-16 -0.92388 3.38268
2.39192 -0.92388 2.39192
1.2945 -0.92388 3.12519
2.12132 -1 2.12132
1.14805 -1 2.77164
1.2945 -0.92388 3.12519
2.0713e-16 -0.92388 3.38268
1.14805 -1 2.77164
0 -1 3
3 1 0
2.77164 1 1.14805
3.38268 0.92388 0
3.12519 0.92388 1.2945
2.77164 1 1.14805
2.12132 1 2.12132
3.12519 0.92388 1.2945
2.39192 0.92388 2.39192
3.38268 0.92388 0
3.12519 0.92388 1.2945
3.70711 0.707107 0
3.42492 0.707107 1.41865
3.12519 0.92388 1.2945
2.39192 0.92388 2.39192
3.42492 0.707107 1.41865
2.62132 0.707107 2.62132
2.12132 1 2.12132
1.14805 1 2.77164
2.39192 0.92388 2.39192
1.2945 0.92388 3.12519
1.14805 1 2.77164
0 1 3
1.2945 0.92388 3.12519
2.0713e-16 0.92388 3.38268
2.39192 0.92388 2.39192
1.2945 0.92388 3.12519
2.62132 0.707107 2.62132
1.41865 0.707107 3.42492
1.2945 0.92388 3.12519
2.0713e-16 0.92388 3.38268
1.41865 0.707107 3.42492
2.26995e-16 0.707107 3.70711
3.70711 0.707107 0
3.42492 0.707107 1.41865
3.92388 0.382683 0
3.62519 0.382683 1.5016
3.42492 0.707107 1.41865
2.62132 0.707107 2.62132
3.62519 0.382683 1.5016
2.7746 0.382683 2.7746
3.92388 0.382683 0
3.62519 0.382683 1.5016
4 0 0
3.69552 0 1.53073
3.62519 0.382683 1.5016
2.7746 0.382683 2.7746
3.69552 0 1.53073
2.82843 0 2.82843
2.62132 0.707107 2.62132
1.41865 0.707107 3.42492
2.7746 0.382683 2.7746
1.5016 0.382683 3.62519
1.41865 0.707107 3.42492
2.26995e-16 0.707107 3.70711
1.5016 0.382683 3.62519
2.40268e-16 0.382683 3.92388
2.7746 0.382683 2.7746
1.5016 0.382683 3.62519
2.82843 0 2.82843
1.53073 0 3.69552
1.5016 0.382683 3.62519
2.40268e-16 0.382683 3.92388
1.53073 0 3.69552
0 0 4
0 0 2
-0.765367 1.22465e-16 1.84776
1.27126e-16 0.382683 2.07612
-0.794497 0.382683 1.91809
-0.765367 1.22465e-16 1.84776
-1.41421 1.22465e-16 1.41421
-0.794497 0.382683 1.91809
-1.46804 0.382683 1.46804
1.27126e-16 0.382683 2.07612
-0.794497 0.382683 1.91809
1.40399e-16 0.707107 2.29289
-0.877452 0.707107 2.11836
-0.794497 0.382683 1.91809
-1.46804 0.382683 1.46804
-0.877452 0.707107 2.11836
-1.62132 0.707107 1.62132
-1.41421 1.22465e-16 1.41421
-1.84776 1.22465e-16 0.765367
-1.46804 0.382683 1.46804
-1.91809 0.382683 0.794497
-1.84776 1.22465e-16 0.765367
-2 0 0
-1.91809 0.382683 0.794497
-2.07612 0.382683 2.54251e-16
-1.46804 0.382683 1.46804
-1.91809 0.382683 0.794497
-1.62132 0.707107 1.62132
-2.11836 0.707107 0.877452
-1.91809 0.382683 0.794497
-2.07612 0.382683 2.54251e-16
-2.11836 0.707107 0.877452
-2.29289 0.707107 2.80798e-16
1.40399e-16 0.707107 2.29289
-0.877452 0.707107 2.11836
1.60264e-16 0.92388 2.61732
-1.0016 0.92388 2.41809
-0.877452 0.707107 2.11836
-1.62132 0.707107 1.62132
-1.0016 0.92388 2.41809
-1.85072 0.92388 1.85072
1.60264e-16 0.92388 2.61732
-1.0016 0.92388 2.41809
0 1 3
-1.14805 1 2.77164
-1.0016 0.92388 2.41809
-1.85072 0.92388 1.85072
-1.14805 1 2.77164
-2.12132 1 2.12132
-1.62132 0.707107 1.62132
-2.11836 0.707107 0.877452
-1.85072 0.92388 1.85072
-2.41809 0.92388 1.0016
-2.11836 0.707107 0.877452
-2.29289 0.707107 2.80798e-16
-2.41809 0.92388 1.0016
-2.61732 0.92388 3.20529e-16
-1.85072 0.92388 1.85072
-2.41809 0.92388 1.0016
-2.12132 1 2.12132
-2.77164 1 1.14805
-2.41809 0.92388 1.0016
-2.61732 0.92388 3.20529e-16
-2.77164 1 1.14805
-3 1 0
0 -1 3
-1.14805 -1 2.77164
1.60264e-16 -0.92388 2.61732
-1.0016 -0.92388 2.41809
-1.14805 -1 2.77164
-2.12132 -1 2.12132
-1.0016 -0.92388 2.41809
-1.85072 -0.92388 1.85072
1.60264e-16 -0.92388 2.61732
-1.0016 -0.92388 2.41809
1.40399e-16 -0.707107 2.29289
-0.877452 -0.707107 2.11836
-1.0016 -0.92388 2.41809
-1.85072 -0.92388 1.85072
-0.877452 -0.707107 2.11836
-1.62132 -0.707107 1.62132
-2.12132 -1 2.12132
-2.77164 -1 1.14805
-1.85072 -0.92388 1.85072
-2.41809 -0.92388 1.0016
-2.77164 -1 1.14805
-3 -1 0
-2.41809 -0.92388 1.0016
-2.61732 -0.92388 3.20529e-16
-1.85072 -0.92388 1.85072
-2.41809 -0.92388 1.0016
-1.62132 -0.707107 1.62132
-2.11836 -0.707107 0.877452
-2.41809 -0.92388 1.0016
-2.61732 -0.92388 3.20529e-16
-2.11836 -0.707107 0.877452
-2.29289 -0.707107 2.80798e-16
1.40399e-16 -0.707107 2.29289
-0.877452 -0.707107 2.11836
1.27126e-16 -0.382683 2.07612
-0.794497 -0.382683 1.91809
-0.877452 -0.707107 2.11836
-1.62132 -0.707107 1.62132
-0.794497 -0.382683 1.91809
-1.46804 -0.382683 1.46804
1.27126e-16 -0.382683 2.07612
-0.794497 -0.382683 1.91809
0 0 2
-0.765367 1.22465e-16 1.84776
-0.794497 -0.382683 1.91809
-1.46804 -0.382683 1.46804
-0.765367 1.22465e-16 1.84776
-1.41421 1.22465e-16 1.41421
-1.62132 -0.707107 1.62132
-2.11836 -0.707107 0.877452
-1.46804 -0.382683 1.46804
-1.91809 -0.382683 0.794497
-2.11836 -0.707107 0.877452
-2.29289 -0.707107 2.80798e-16
-1.91809 -0.382683 0.794497
-2.07612 -0.382683 2.54251e-16
-1.46804 -0.382683 1.46804
-1.91809 -0.382683 0.794497
-1.41421 1.22465e-16 1.41421
-1.84776 1.22465e-16 0.765367
-1.91809 -0.382683 0.794497
-2.07612 -0.382683 2.54251e-16
-1.84776 1.22465e-16 0.765367
-2 0 0
0 0 4
-1.53073 0 3.69552
2.40268e-16 -0.382683 3.92388
-1.5016 -0.382683 3.62519
-1.53073 0 3.69552
-2.82843 0 2.82843
-1.5016 -0.382683 3.62519
-2.7746 -0.382683 2.7746
2.40268e-16 -0.382683 3.92388
-1.5016 -0.382683 3.62519
2.26995e-16 -0.707107 3.70711
-1.41865 -0.707107 3.42492
-1.5016 -0.382683 3.62519
-2.7746 -0.382683 2.7746
-1.41865 -0.707107 3.42492
-2.62132 -0.707107 2.62132
-2.82843 0 2.82843
-3.69552 0 1.53073
-2.7746 -0.382683 2.7746
-3.62519 -0.382683 1.5016
-3.69552 0 1.53073
-4 0 0
-3.62519 -0.382683 1.5016
-3.92388 -0.382683 4.80537e-16
-2.7746 -0.382683 2.7746
-3.62519 -0.382683 1.5016
-2.62132 -0.707107 2.62132
-3.42492 -0.707107 1.41865
[...]
POINT_DATA 1024
SCALARS U double 1
LOOKUP_TABLE default
0.0346262 0.0348977 0.0500838 0.0503661 0.0348977 0.0347484 0.0503661 0.0503433 0.0500838 0.0503661 0.067235 0.0674458 0.0503661 0.0503433 0.0674458 0.06773 0.0347484 0.0270214 0.0503433 0.0419752 0.0270214 0.0098227 0.0419752 0.0201667 0.0503433 0.0419752 0.06773 0.060015 0.0419752 0.0201667 0.060015 0.0342646 0.067235 0.0674458 0.0770232 0.0770954 0.0674458 0.06773 0.0770954 0.0777261 0.0770232 0.0770954 0.0792908 0.0792091 0.0770954 0.0777261 0.0792091 0.0800855 0.06773 0.060015 0.0777261 0.0711258 0.060015 0.0342646 0.0711258 0.0428767 0.0777261 0.0711258 0.0800855 0.0746388 0.0711258 0.0428767 0.0746388 0.0447618 0.00360334 0.00359183 0.00577618 0.00580308 0.00359183 0.00367983 0.00580308 0.00587032 0.00577618 0.00580308 0.0131733 0.0132684 0.00580308 0.00587032 0.0132684 0.0133047 0.00367983 0.0031352 0.00587032 0.0046032 0.0031352 0.000465254 0.0046032 0.00119681 0.00587032 0.0046032 0.0133047 0.0101979 0.0046032 0.00119681 0.0101979 0.00296761 0.0131733 0.0132684 0.0232664 0.0234595 0.0132684 0.0133047 0.0234595 0.0233858 0.0232664 0.0234595 0.0346262 0.0348977 0.0234595 0.0233858 0.0348977 0.0347484 0.0133047 0.0101979 0.0233858 0.0177405 0.0101979 0.00296761 0.0177405 0.00543783 0.0233858 0.0177405 0.0347484 0.0270214 0.0177405 0.00543783 0.0270214 0.0098227 0.0351909 0.0349386 0.0249336 0.0247396 0.0349386 0.0356629 0.0247396 0.0252986 0.0249336 0.0247396 0.0152664 0.0151466 0.0247396 0.0252986 0.0151466 0.0155116 0.0356629 0.033678 0.0252986 0.0237579 0.033678 0.00365764 0.0237579 0.000942065 0.0252986 0.0237579 0.0155116 0.0144265 0.0237579 0.000942065 0.0144265 0.000749757 0.0152664 0.0151466 0.00720481 0.00715035 0.0151466 0.0155116 0.00715035 0.00733831 0.00720481 0.00715035 0.00360334 0.00359183 0.00715035 0.00733831 0.00359183 0.00367983 0.0155116 0.0144265 0.00733831 0.00669095 0.0144265 0.000749757 0.00669095 0.000512825 0.00733831 0.00669095 0.00367983 0.0031352 0.00669095 0.000512825 0.0031352 0.000465254 0.0792908 0.0792091 0.076596 0.0763976 0.0792091 0.0800855 0.0763976 0.0773667 0.076596 0.0763976 0.0660319 0.0657695 0.0763976 0.0773667 0.0657695 0.0667156 0.0800855 0.0746388 0.0773667 0.073016 0.0746388 0.0447618 0.073016 0.0416492 0.0773667 0.073016 0.0667156 0.0633383 0.073016 0.0416492 0.0633383 0.0305485 0.0660319 0.0657695 0.0493022 0.0490241 0.0657695 0.0667156 0.0490241 0.049879 0.0493022 0.0490241 0.0351909 0.0349386 0.0490241 0.049879 0.0349386 0.0356629 0.0667156 0.0633383 0.049879 0.0473077 0.0633383 0.0305485 0.0473077 0.0142289 0.049879 0.0473077 0.0356629 0.033678 0.0473077 0.0142289 0.033678 0.00365764 0.0098227 0.000248904 0.0201667 0.00109925 0.000248904 -0.00023569 0.00109925 -0.000476593 0.0201667 0.00109925 0.0342646 0.00165025 0.00109925 -0.000476593 0.00165025 -0.000696811 -0.00023569 5.37854e-05 -0.000476593 0.000112979 5.37854e-05 -1.29316e-05 0.000112979 -3.58038e-05 -0.000476593 0.000112979 -0.000696811 0.000193513 0.000112979 -3.58038e-05 0.000193513 -7.93761e-05 0.0342646 0.00165025 0.0428767 0.000951831 0.00165025 -0.000696811 0.000951831 -0.00061027 0.0428767 0.000951831 0.0447618 -0.000349108 0.000951831 -0.00061027 -0.000349108 -0.000290249 -0.000696811 0.000193513 -0.00061027 0.00021384 0.000193513 -7.93761e-05 0.00021384 -0.000107034 -0.00061027 0.00021384 -0.000290249 0.000156534 0.00021384 -0.000107034 0.000156534 -9.56047e-05 0.000465254 -7.79076e-05 0.00119681 -8.02541e-05 -7.79076e-05 1.02207e-05 -8.02541e-05 -1.26206e-05 0.00119681 -8.02541e-05 0.00296761 -0.000101725 -8.02541e-05 -1.26206e-05 -0.000101725 -5.43739e-05 1.02207e-05 -6.24273e-07 -1.26206e-05 6.80157e-06 -6.24273e-07 -2.94401e-07 6.80157e-06 -3.19357e-06 -1.26206e-05 6.80157e-06 -5.43739e-05 1.81084e-05 6.80157e-06 -3.19357e-06 1.81084e-05 -6.33281e-06 0.00296761 -0.000101725 0.00543783 -6.78477e-05 -0.000101725 -5.43739e-05 -6.78477e-05 -0.000119725 0.00543783 -6.78477e-05 0.0098227 0.000248904 -6.78477e-05 -0.000119725 0.000248904 -0.00023569 -5.43739e-05 1.81084e-05 -0.000119725 3.14206e-05 1.81084e-05 -6.33281e-06 3.14206e-05 -8.2373e-06 -0.000119725 3.14206e-05 -0.00023569 5.37854e-05 3.14206e-05 -8.2373e-06 5.37854e-05 -1.29316e-05 0.00365764 -0.000635615 0.000942065 -0.000417771 -0.000635615 0.00016949 -0.000417771 0.000123049 0.000942065 -0.000417771 0.000749757 -0.000280539 -0.000417771 0.000123049 -0.000280539 7.81069e-05 0.00016949 -4.1506e-05 0.000123049 -3.27108e-05 -4.1506e-05 1.68604e-05 -3.27108e-05 1.42798e-05 0.000123049 -3.27108e-05 7.81069e-05 -1.96522e-05 -3.27108e-05 1.42798e-05 -1.96522e-05 8.14712e-06 0.000749757 -0.000280539 0.000512825 -0.000149864 -0.000280539 7.81069e-05 -0.000149864 3.70621e-05 0.000512825 -0.000149864 0.000465254 -7.79076e-05 -0.000149864 3.70621e-05 -7.79076e-05 1.02207e-05 7.81069e-05 -1.96522e-05 3.70621e-05 -8.19675e-06 -1.96522e-05 8.14712e-06 -8.19675e-06 2.95911e-06 3.70621e-05 -8.19675e-06 1.02207e-05 -6.24273e-07 -8.19675e-06 2.95911e-06 -6.24273e-07 -2.94401e-07 0.0447618 -0.000349108 0.0416492 -0.00134193 -0.000349108 -0.000290249 -0.00134193 3.07178e-05 0.0416492 -0.00134193 0.0305485 -0.00156954 -0.00134193 3.07178e-05 -0.00156954 0.000210863 -0.000290249 0.000156534 3.07178e-05 6.99343e-05 0.000156534 -9.56047e-05 6.99343e-05 -5.89758e-05 3.07178e-05 6.99343e-05 0.000210863 -2.56839e-06 6.99343e-05 -5.89758e-05 -2.56839e-06 -1.84687e-05 0.0305485 -0.00156954 0.0142289 -0.00111325 -0.00156954 0.000210863 -0.00111325 0.000222612 0.0142289 -0.00111325 0.00365764 -0.000635615 -0.00111325 0.000222612 -0.000635615 0.00016949 0.000210863 -2.56839e-06 0.000222612 -3.72829e-05 -2.56839e-06 -1.84687e-05 -3.72829e-05 8.33264e-06 0.000222612 -3.72829e-05 0.00016949 -4.1506e-05 -3.72829e-05 8.33264e-06 -4.1506e-05 1.68604e-05 -1.29316e-05 5.37787e-05 -3.58038e-05 0.000112973 5.37787e-05 -0.000235687 0.000112973 -0.000476595 -3.58038e-05 0.000112973 -7.93761e-05 0.000193506 0.000112973 -0.000476595 0.000193506 -0.000696813 -0.000235687 0.000248902 -0.000476595 0.00109925 0.000248902 0.0098227 0.00109925 0.0201667 -0.000476595 0.00109925 -0.000696813 0.00165025 0.00109925 0.0201667 0.00165025 0.0342646 -7.93761e-05 0.000193506 -0.000107034 0.000213838 0.000193506 -0.000696813 0.000213838 -0.000610268 -0.000107034 0.000213838 -9.56047e-05 0.000156535 0.000213838 -0.000610268 0.000156535 -0.000290245 -0.000696813 0.00165025 -0.000610268 0.000951829 0.00165025 0.0342646 0.000951829 0.0428767 -0.000610268 0.000951829 -0.000290245 -0.000349106 0.000951829 0.0428767 -0.000349106 0.0447618 -2.94401e-07 -6.22788e-07 -3.19357e-06 6.80492e-06 -6.22788e-07 1.0222e-05 6.80492e-06 -1.26232e-05 -3.19357e-06 6.80492e-06 -6.33281e-06 1.81079e-05 6.80492e-06 -1.26232e-05 1.81079e-05 -5.43717e-05 1.0222e-05 -7.79066e-05 -1.26232e-05 -8.02476e-05 -7.79066e-05 0.000465256 -8.02476e-05 0.00119682 -1.26232e-05 -8.02476e-05 -5.43717e-05 -0.000101726 -8.02476e-05 0.00119682 -0.000101726 0.00296761 -6.33281e-06 1.81079e-05 -8.2373e-06 3.14221e-05 1.81079e-05 -5.43717e-05 3.14221e-05 -0.000119726 -8.2373e-06 3.14221e-05 -1.29316e-05 5.37787e-05 3.14221e-05 -0.000119726 5.37787e-05 -0.000235687 -5.43717e-05 -0.000101726 -0.000119726 -6.7849e-05 -0.000101726 0.00296761 -6.7849e-05 0.00543782 -0.000119726 -6.7849e-05 -0.000235687 0.000248902 -6.7849e-05 0.00543782 0.000248902 0.0098227 1.68604e-05 -4.15087e-05 1.42798e-05 -3.27094e-05 -4.15087e-05 0.000169494 -3.27094e-05 0.000123051 1.42798e-05 -3.27094e-05 8.14712e-06 -1.96551e-05 -3.27094e-05 0.000123051 -1.96551e-05 7.81127e-05 0.000169494 -0.000635616 0.000123051 -0.000417769 -0.000635616 0.00365765 -0.000417769 0.00094207 0.000123051 -0.000417769 7.81127e-05 -0.000280541 -0.000417769 0.00094207 -0.000280541 0.000749764 8.14712e-06 -1.96551e-05 2.95911e-06 -8.19832e-06 -1.96551e-05 7.81127e-05 -8.19832e-06 3.7065e-05 2.95911e-06 -8.19832e-06 -2.94401e-07 -6.22788e-07 -8.19832e-06 3.7065e-05 -6.22788e-07 1.0222e-05 7.81127e-05 -0.000280541 3.7065e-05 -0.000149866 -0.000280541 0.000749764 -0.000149866 0.00051283 3.7065e-05 -0.000149866 1.0222e-05 -7.79066e-05 -0.000149866 0.00051283 -7.79066e-05 0.000465256 -9.56047e-05 0.000156535 -5.89758e-05 6.99395e-05 0.000156535 -0.000290245 6.99395e-05 3.0716e-05 -5.89758e-05 6.99395e-05 -1.84687e-05 -2.56619e-06 6.99395e-05 3.0716e-05 -2.56619e-06 0.000210867 -0.000290245 -0.000349106 3.0716e-05 -0.00134192 -0.000349106 0.0447618 -0.00134192 0.0416492 3.0716e-05 -0.00134192 0.000210867 -0.00156955 -0.00134192 0.0416492 -0.00156955 0.0305485 -1.84687e-05 -2.56619e-06 8.33264e-06 -3.72799e-05 -2.56619e-06 0.000210867 -3.72799e-05 0.000222611 8.33264e-06 -3.72799e-05 1.68604e-05 -4.15087e-05 -3.72799e-05 0.000222611 -4.15087e-05 0.000169494 0.000210867 -0.00156955 0.000222611 -0.00111326 -0.00156955 0.0305485 -0.00111326 0.0142289 0.000222611 -0.00111326 0.000169494 -0.000635616 -0.00111326 0.0142289 -0.000635616 0.00365765 0.0098227 0.0270214 0.0201667 0.0419752 0.0270214 0.0347484 0.0419752 0.0503433 0.0201667 0.0419752 0.0342646 0.060015 0.0419752 0.0503433 0.060015 0.06773 0.0347484 0.0348977 0.0503433 0.0503661 0.0348977 0.0346262 0.0503661 0.0500838 0.0503433 0.0503661 0.06773 0.0674458 0.0503661 0.0500838 0.0674458 0.067235 0.0342646 0.060015 0.0428767 0.0711258 0.060015 0.06773 0.0711258 0.0777261 0.0428767 0.0711258 0.0447618 0.0746388 0.0711258 0.0777261 0.0746388 0.0800855 0.06773 0.0674458 0.0777261 0.0770954 0.0674458 0.067235 0.0770954 0.0770232 0.0777261 0.0770954 0.0800855 0.0792091 0.0770954 0.0770232 0.0792091 0.0792908 0.000465256 0.0031352 0.00119682 0.00460319 0.0031352 0.00367983 0.00460319 0.00587033 0.00119682 0.00460319 0.00296761 0.0101979 0.00460319 0.00587033 0.0101979 0.0133047 0.00367983 0.00359182 0.00587033 0.00580307 0.00359182 0.00360334 0.00580307 0.00577618 0.00587033 0.00580307 0.0133047 0.0132684 0.00580307 0.00577618 0.0132684 0.0131733 0.00296761 0.0101979 0.00543782 0.0177405 0.0101979 0.0133047 0.0177405 0.0233858 0.00543782 0.0177405 0.0098227 0.0270214 0.0177405 0.0233858 0.0270214 0.0347484 0.0133047 0.0132684 0.0233858 0.0234595 0.0132684 0.0131733 0.0234595 0.0232664 0.0233858 0.0234595 0.0347484 0.0348977 0.0234595 0.0232664 0.0348977 0.0346262 0.00365765 0.033678 0.00094207 0.0237579 0.033678 0.0356629 0.0237579 0.0252986 0.00094207 0.0237579 0.000749764 0.0144265 0.0237579 0.0252986 0.0144265 0.0155116 0.0356629 0.0349386 0.0252986 0.0247396 0.0349386 0.0351909 0.0247396 0.0249336 0.0252986 0.0247396 0.0155116 0.0151466 0.0247396 0.0249336 0.0151466 0.0152664 0.000749764 0.0144265 0.00051283 0.00669095 0.0144265 0.0155116 0.00669095 0.00733831 0.00051283 0.00669095 0.000465256 0.0031352 0.00669095 0.00733831 0.0031352 0.00367983 0.0155116 0.0151466 0.00733831 0.00715035 0.0151466 0.0152664 0.00715035 0.00720481 0.00733831 0.00715035 0.00367983 0.00359182 0.00715035 0.00720481 0.00359182 0.00360334 0.0447618 0.0746388 0.0416492 0.073016 0.0746388 0.0800855 0.073016 0.0773667 0.0416492 0.073016 0.0305485 0.0633383 0.073016 0.0773667 0.0633383 0.0667156 0.0800855 0.0792091 0.0773667 0.0763976 0.0792091 0.0792908 0.0763976 0.076596 0.0773667 0.0763976 0.0667156 0.0657695 0.0763976 0.076596 0.0657695 0.0660319 0.0305485 0.0633383 0.0142289 0.0473077 0.0633383 0.0667156 0.0473077 0.049879 0.0142289 0.0473077 0.00365765 0.033678 0.0473077 0.049879 0.033678 0.0356629 0.0667156 0.0657695 0.049879 0.0490241 0.0657695 0.0660319 0.0490241 0.0493022 0.049879 0.0490241 0.0356629 0.0349386 0.0490241 0.0493022 0.0349386 0.0351909 
