# vtk DataFile Version 3.0
#This file was generated by the deal.II library on 2023/3/9 at 5:31:12
ASCII
DATASET UNSTRUCTURED_GRID

FIELD FieldData 2
CYCLE 1 1 int
43
TIME 1 1 double
0.086
POINTS 16384 double
2 0 0
1.99037 1.22465e-16 0.196034
2.00482 0.0980171 0
1.99516 0.0980171 0.196506
1.99037 1.22465e-16 0.196034
1.96157 1.22465e-16 0.390181
1.99516 0.0980171 0.196506
1.96629 0.0980171 0.39112
2.00482 0.0980171 0
1.99516 0.0980171 0.196506
2.01921 0.19509 0
2.00949 0.19509 0.197918
1.99516 0.0980171 0.196506
1.96629 0.0980171 0.39112
2.00949 0.19509 0.197918
1.98042 0.19509 0.393929
1.96157 1.22465e-16 0.390181
1.91388 1.22465e-16 0.580569
1.96629 0.0980171 0.39112
1.91849 0.0980171 0.581967
1.91388 1.22465e-16 0.580569
1.84776 1.22465e-16 0.765367
1.91849 0.0980171 0.581967
1.85221 0.0980171 0.76721
1.96629 0.0980171 0.39112
1.91849 0.0980171 0.581967
1.98042 0.19509 0.393929
1.93227 0.19509 0.586147
1.91849 0.0980171 0.581967
1.85221 0.0980171 0.76721
1.93227 0.19509 0.586147
1.86551 0.19509 0.77272
2.01921 0.19509 0
2.00949 0.19509 0.197918
2.04306 0.290285 0
2.03322 0.290285 0.200255
2.00949 0.19509 0.197918
1.98042 0.19509 0.393929
2.03322 0.290285 0.200255
2.0038 0.290285 0.398581
2.04306 0.290285 0
2.03322 0.290285 0.200255
2.07612 0.382683 0
2.06612 0.382683 0.203495
2.03322 0.290285 0.200255
2.0038 0.290285 0.398581
2.06612 0.382683 0.203495
2.03623 0.382683 0.405031
1.98042 0.19509 0.393929
1.93227 0.19509 0.586147
2.0038 0.290285 0.398581
1.95509 0.290285 0.593069
1.93227 0.19509 0.586147
1.86551 0.19509 0.77272
1.95509 0.290285 0.593069
1.88754 0.290285 0.781845
2.0038 0.290285 0.398581
1.95509 0.290285 0.593069
2.03623 0.382683 0.405031
1.98672 0.382683 0.602666
1.95509 0.290285 0.593069
1.88754 0.290285 0.781845
1.98672 0.382683 0.602666
1.91809 0.382683 0.794497
1.84776 1.22465e-16 0.765367
1.76384 1.22465e-16 0.942793
1.85221 0.0980171 0.76721
1.76809 0.0980171 0.945063
1.76384 1.22465e-16 0.942793
1.66294 1.22465e-16 1.11114
1.76809 0.0980171 0.945063
1.66694 0.0980171 1.11382
1.85221 0.0980171 0.76721
1.76809 0.0980171 0.945063
1.86551 0.19509 0.77272
1.78079 0.19509 0.951851
1.76809 0.0980171 0.945063
1.66694 0.0980171 1.11382
1.78079 0.19509 0.951851
1.67892 0.19509 1.12182
1.66294 1.22465e-16 1.11114
1.54602 1.22465e-16 1.26879
1.66694 0.0980171 1.11382
1.54974 0.0980171 1.27184
1.54602 1.22465e-16 1.26879
1.41421 1.22465e-16 1.41421
1.54974 0.0980171 1.27184
1.41762 0.0980171 1.41762
1.66694 0.0980171 1.11382
1.54974 0.0980171 1.27184
1.67892 0.19509 1.12182
1.56087 0.19509 1.28098
1.54974 0.0980171 1.27184
1.41762 0.0980171 1.41762
1.56087 0.19509 1.28098
1.4278 0.19509 1.4278
1.86551 0.19509 0.77272
1.78079 0.19509 0.951851
1.88754 0.290285 0.781845
1.80182 0.290285 0.963092
1.78079 0.19509 0.951851
1.67892 0.19509 1.12182
1.80182 0.290285 0.963092
1.69874 0.290285 1.13506
1.88754 0.290285 0.781845
1.80182 0.290285 0.963092
1.91809 0.382683 0.794497
1.83097 0.382683 0.978676
1.80182 0.290285 0.963092
1.69874 0.290285 1.13506
1.83097 0.382683 0.978676
1.72623 0.382683 1.15343
1.67892 0.19509 1.12182
1.56087 0.19509 1.28098
1.69874 0.290285 1.13506
1.57931 0.290285 1.2961
1.56087 0.19509 1.28098
1.4278 0.19509 1.4278
1.57931 0.290285 1.2961
1.44466 0.290285 1.44466
1.69874 0.290285 1.13506
1.57931 0.290285 1.2961
1.72623 0.382683 1.15343
1.60486 0.382683 1.31708
1.57931 0.290285 1.2961
1.44466 0.290285 1.44466
1.60486 0.382683 1.31708
1.46804 0.382683 1.46804
2.07612 0.382683 0
2.06612 0.382683 0.203495
2.11808 0.471397 0
2.10788 0.471397 0.207608
2.06612 0.382683 0.203495
2.03623 0.382683 0.405031
2.10788 0.471397 0.207608
2.07738 0.471397 0.413217
2.11808 0.471397 0
2.10788 0.471397 0.207608
2.16853 0.55557 0
2.15809 0.55557 0.212553
2.10788 0.471397 0.207608
2.07738 0.471397 0.413217
2.15809 0.55557 0.212553
2.12686 0.55557 0.423059
2.03623 0.382683 0.405031
1.98672 0.382683 0.602666
2.07738 0.471397 0.413217
2.02687 0.471397 0.614846
1.98672 0.382683 0.602666
1.91809 0.382683 0.794497
2.02687 0.471397 0.614846
1.95685 0.471397 0.810554
2.07738 0.471397 0.413217
2.02687 0.471397 0.614846
2.12686 0.55557 0.423059
2.07515 0.55557 0.629491
2.02687 0.471397 0.614846
1.95685 0.471397 0.810554
2.07515 0.55557 0.629491
2.00346 0.55557 0.829861
2.16853 0.55557 0
2.15809 0.55557 0.212553
2.22699 0.634393 0
2.21627 0.634393 0.218283
2.15809 0.55557 0.212553
2.12686 0.55557 0.423059
2.21627 0.634393 0.218283
2.1842 0.634393 0.434464
2.22699 0.634393 0
2.21627 0.634393 0.218283
2.29289 0.707107 0
2.28185 0.707107 0.224743
2.21627 0.634393 0.218283
2.1842 0.634393 0.434464
2.28185 0.707107 0.224743
2.24884 0.707107 0.447321
2.12686 0.55557 0.423059
2.07515 0.55557 0.629491
2.1842 0.634393 0.434464
2.1311 0.634393 0.646461
2.07515 0.55557 0.629491
2.00346 0.55557 0.829861
2.1311 0.634393 0.646461
2.05747 0.634393 0.852232
2.1842 0.634393 0.434464
2.1311 0.634393 0.646461
2.24884 0.707107 0.447321
2.19416 0.707107 0.665592
2.1311 0.634393 0.646461
2.05747 0.634393 0.852232
2.19416 0.707107 0.665592
2.11836 0.707107 0.877452
1.91809 0.382683 0.794497
1.83097 0.382683 0.978676
1.95685 0.471397 0.810554
1.86798 0.471397 0.998455
1.83097 0.382683 0.978676
1.72623 0.382683 1.15343
1.86798 0.471397 0.998455
1.76112 0.471397 1.17674
1.95685 0.471397 0.810554
1.86798 0.471397 0.998455
2.00346 0.55557 0.829861
1.91247 0.55557 1.02224
1.86798 0.471397 0.998455
1.76112 0.471397 1.17674
1.91247 0.55557 1.02224
1.80307 0.55557 1.20477
1.72623 0.382683 1.15343
1.60486 0.382683 1.31708
1.76112 0.471397 1.17674
1.6373 0.471397 1.34369
1.60486 0.382683 1.31708
1.46804 0.382683 1.46804
1.6373 0.471397 1.34369
1.49771 0.471397 1.49771
1.76112 0.471397 1.17674
1.6373 0.471397 1.34369
1.80307 0.55557 1.20477
1.6763 0.55557 1.3757
1.6373 0.471397 1.34369
1.49771 0.471397 1.49771
1.6763 0.55557 1.3757
1.53338 0.55557 1.53338
2.00346 0.55557 0.829861
1.91247 0.55557 1.02224
2.05747 0.634393 0.852232
1.96403 0.634393 1.0498
1.91247 0.55557 1.02224
1.80307 0.55557 1.20477
1.96403 0.634393 1.0498
1.85167 0.634393 1.23725
2.05747 0.634393 0.852232
1.96403 0.634393 1.0498
2.11836 0.707107 0.877452
2.02215 0.707107 1.08086
1.96403 0.634393 1.0498
1.85167 0.634393 1.23725
2.02215 0.707107 1.08086
1.90647 0.707107 1.27386
1.80307 0.55557 1.20477
1.6763 0.55557 1.3757
1.85167 0.634393 1.23725
1.72149 0.634393 1.41279
1.6763 0.55557 1.3757
1.53338 0.55557 1.53338
1.72149 0.634393 1.41279
1.57472 0.634393 1.57472
1.85167 0.634393 1.23725
1.72149 0.634393 1.41279
1.90647 0.707107 1.27386
1.77243 0.707107 1.4546
1.72149 0.634393 1.41279
1.57472 0.634393 1.57472
1.77243 0.707107 1.4546
1.62132 0.707107 1.62132
1.41421 1.22465e-16 1.41421
1.26879 1.22465e-16 1.54602
1.41762 0.0980171 1.41762
1.27184 0.0980171 1.54974
1.26879 1.22465e-16 1.54602
1.11114 1.22465e-16 1.66294
1.27184 0.0980171 1.54974
1.11382 0.0980171 1.66694
1.41762 0.0980171 1.41762
1.27184 0.0980171 1.54974
1.4278 0.19509 1.4278
1.28098 0.19509 1.56087
1.27184 0.0980171 1.54974
1.11382 0.0980171 1.66694
1.28098 0.19509 1.56087
1.12182 0.19509 1.67892
1.11114 1.22465e-16 1.66294
0.942793 1.22465e-16 1.76384
1.11382 0.0980171 1.66694
0.945063 0.0980171 1.76809
0.942793 1.22465e-16 1.76384
0.765367 1.22465e-16 1.84776
0.945063 0.0980171 1.76809
0.76721 0.0980171 1.85221
1.11382 0.0980171 1.66694
0.945063 0.0980171 1.76809
1.12182 0.19509 1.67892
0.951851 0.19509 1.78079
0.945063 0.0980171 1.76809
0.76721 0.0980171 1.85221
0.951851 0.19509 1.78079
0.77272 0.19509 1.86551
1.4278 0.19509 1.4278
1.28098 0.19509 1.56087
1.44466 0.290285 1.44466
1.2961 0.290285 1.57931
1.28098 0.19509 1.56087
1.12182 0.19509 1.67892
1.2961 0.290285 1.57931
1.13506 0.290285 1.69874
1.44466 0.290285 1.44466
1.2961 0.290285 1.57931
1.46804 0.382683 1.46804
1.31708 0.382683 1.60486
1.2961 0.290285 1.57931
1.13506 0.290285 1.69874
1.31708 0.382683 1.60486
1.15343 0.382683 1.72623
1.12182 0.19509 1.67892
0.951851 0.19509 1.78079
1.13506 0.290285 1.69874
0.963092 0.290285 1.80182
0.951851 0.19509 1.78079
0.77272 0.19509 1.86551
0.963092 0.290285 1.80182
0.781845 0.290285 1.88754
1.13506 0.290285 1.69874
0.963092 0.290285 1.80182
1.15343 0.382683 1.72623
0.978676 0.382683 1.83097
0.963092 0.290285 1.80182
0.781845 0.290285 1.88754
0.978676 0.382683 1.83097
0.794497 0.382683 1.91809
0.765367 1.22465e-16 1.84776
0.580569 1.22465e-16 1.91388
0.76721 0.0980171 1.85221
0.581967 0.0980171 1.91849
0.580569 1.22465e-16 1.91388
0.390181 1.22465e-16 1.96157
0.581967 0.0980171 1.91849
0.39112 0.0980171 1.96629
0.76721 0.0980171 1.85221
0.581967 0.0980171 1.91849
0.77272 0.19509 1.86551
0.586147 0.19509 1.93227
0.581967 0.0980171 1.91849
0.39112 0.0980171 1.96629
0.586147 0.19509 1.93227
0.393929 0.19509 1.98042
0.390181 1.22465e-16 1.96157
0.196034 1.22465e-16 1.99037
0.39112 0.0980171 1.96629
0.196506 0.0980171 1.99516
0.196034 1.22465e-16 1.99037
0 0 2
0.196506 0.0980171 1.99516
1.2276e-16 0.0980171 2.00482
0.39112 0.0980171 1.96629
0.196506 0.0980171 1.99516
0.393929 0.19509 1.98042
0.197918 0.19509 2.00949
0.196506 0.0980171 1.99516
1.2276e-16 0.0980171 2.00482
0.197918 0.19509 2.00949
1.23641e-16 0.19509 2.01921
0.77272 0.19509 1.86551
0.586147 0.19509 1.93227
0.781845 0.290285 1.88754
0.593069 0.290285 1.95509
0.586147 0.19509 1.93227
0.393929 0.19509 1.98042
0.593069 0.290285 1.95509
0.398581 0.290285 2.0038
0.781845 0.290285 1.88754
0.593069 0.290285 1.95509
0.794497 0.382683 1.91809
0.602666 0.382683 1.98672
0.593069 0.290285 1.95509
0.398581 0.290285 2.0038
0.602666 0.382683 1.98672
0.405031 0.382683 2.03623
0.393929 0.19509 1.98042
0.197918 0.19509 2.00949
0.398581 0.290285 2.0038
0.200255 0.290285 2.03322
0.197918 0.19509 2.00949
1.23641e-16 0.19509 2.01921
0.200255 0.290285 2.03322
1.25101e-16 0.290285 2.04306
0.398581 0.290285 2.0038
0.200255 0.290285 2.03322
0.405031 0.382683 2.03623
0.203495 0.382683 2.06612
0.200255 0.290285 2.03322
1.25101e-16 0.290285 2.04306
0.203495 0.382683 2.06612
1.27126e-16 0.382683 2.07612
1.46804 0.382683 1.46804
1.31708 0.382683 1.60486
1.49771 0.471397 1.49771
[...]
POINT_DATA 16384
SCALARS U double 1
LOOKUP_TABLE default
0.000333276 0.00029858 0.00117129 0.00104214 0.00029858 0.000213678 0.00104214 0.000729961 0.00117129 0.00104214 0.00753078 0.00664661 0.00104214 0.000729961 0.00664661 0.00453964 0.000213678 0.000120214 0.000729961 0.000395023 0.000120214 5.13904e-05 0.000395023 0.000158495 0.000729961 0.000395023 0.00453964 0.00234552 0.000395023 0.000158495 0.00234552 0.000870483 0.00753078 0.00664661 0.0465 0.0407063 0.00664661 0.00453964 0.0407063 0.0270953 0.0465 0.0407063 0.265971 0.231045 0.0407063 0.0270953 0.231045 0.15004 0.00453964 0.00234552 0.0270953 0.013343 0.00234552 0.000870483 0.013343 0.00455291 0.0270953 0.013343 0.15004 0.0704169 0.013343 0.00455291 0.0704169 0.0219401 5.13904e-05 1.55062e-05 0.000158495 4.28668e-05 1.55062e-05 2.66903e-06 4.28668e-05 5.6234e-06 0.000158495 4.28668e-05 0.000870483 0.000203467 4.28668e-05 5.6234e-06 0.000203467 1.59445e-05 2.66903e-06 -2.4245e-08 5.6234e-06 -5.93803e-07 -2.4245e-08 -1.11203e-07 -5.93803e-07 -2.94209e-07 5.6234e-06 -5.93803e-07 1.59445e-05 -5.40232e-06 -5.93803e-07 -2.94209e-07 -5.40232e-06 -1.10046e-06 0.000870483 0.000203467 0.00455291 0.000893484 0.000203467 1.59445e-05 0.000893484 1.49444e-05 0.00455291 0.000893484 0.0219401 0.00343293 0.000893484 1.49444e-05 0.00343293 -0.000225307 1.59445e-05 -5.40232e-06 1.49444e-05 -3.31716e-05 -5.40232e-06 -1.10046e-06 -3.31716e-05 -2.36649e-06 1.49444e-05 -3.31716e-05 -0.000225307 -0.000159221 -3.31716e-05 -2.36649e-06 -0.000159221 6.32185e-06 0.265971 0.231045 1.35952 1.17637 0.231045 0.15004 1.17637 0.752004 1.35952 1.17637 5.69308 4.98882 1.17637 0.752004 4.98882 3.25244 0.15004 0.0704169 0.752004 0.339238 0.0704169 0.0219401 0.339238 0.0962599 0.752004 0.339238 3.25244 1.45406 0.339238 0.0962599 1.45406 0.379781 5.69308 4.98882 16.1263 14.8233 4.98882 3.25244 14.8233 10.8466 16.1263 14.8233 24.6394 24.3619 14.8233 10.8466 24.3619 22.3175 3.25244 1.45406 10.8466 5.29866 1.45406 0.379781 5.29866 1.31892 10.8466 5.29866 22.3175 14.715 5.29866 1.31892 14.715 3.95406 0.0219401 0.00343293 0.0962599 0.0109634 0.00343293 -0.000225307 0.0109634 -0.00217829 0.0962599 0.0109634 0.379781 0.0251187 0.0109634 -0.00217829 0.0251187 -0.0129336 -0.000225307 -0.000159221 -0.00217829 -0.000593741 -0.000159221 6.32185e-06 -0.000593741 0.00010304 -0.00217829 -0.000593741 -0.0129336 -0.00152739 -0.000593741 0.00010304 -0.00152739 0.000676412 0.379781 0.0251187 1.31892 0.0136691 0.0251187 -0.0129336 0.0136691 -0.0603431 1.31892 0.0136691 3.95406 -0.248249 0.0136691 -0.0603431 -0.248249 -0.235272 -0.0129336 -0.00152739 -0.0603431 -0.000623394 -0.00152739 0.000676412 -0.000623394 0.00314467 -0.0603431 -0.000623394 -0.235272 0.0235141 -0.000623394 0.00314467 0.0235141 0.0101912 -1.11203e-07 -7.57147e-09 -2.94209e-07 1.14416e-08 -7.57147e-09 5.08221e-09 1.14416e-08 1.40366e-08 -2.94209e-07 1.14416e-08 -1.10046e-06 2.20971e-07 1.14416e-08 1.40366e-08 2.20971e-07 4.78869e-08 5.08221e-09 2.81522e-10 1.40366e-08 -1.18787e-09 2.81522e-10 -2.86614e-10 -1.18787e-09 -6.5174e-10 1.40366e-08 -1.18787e-09 4.78869e-08 -1.47419e-08 -1.18787e-09 -6.5174e-10 -1.47419e-08 -1.00125e-09 -1.10046e-06 2.20971e-07 -2.36649e-06 1.55793e-06 2.20971e-07 4.78869e-08 1.55793e-06 3.44212e-08 -2.36649e-06 1.55793e-06 6.32185e-06 7.38243e-06 1.55793e-06 3.44212e-08 7.38243e-06 -9.00416e-07 4.78869e-08 -1.47419e-08 3.44212e-08 -8.44584e-08 -1.47419e-08 -1.00125e-09 -8.44584e-08 9.06166e-09 3.44212e-08 -8.44584e-08 -9.00416e-07 -2.84727e-07 -8.44584e-08 9.06166e-09 -2.84727e-07 9.28175e-08 -2.86614e-10 1.13224e-11 -6.5174e-10 1.42474e-10 1.13224e-11 1.49593e-11 1.42474e-10 1.5596e-11 -6.5174e-10 1.42474e-10 -1.00125e-09 9.56031e-10 1.42474e-10 1.5596e-11 9.56031e-10 -1.05401e-10 1.49593e-11 -3.30732e-12 1.5596e-11 -1.11107e-11 -3.30732e-12 2.78616e-14 -1.11107e-11 -1.54447e-14 1.5596e-11 -1.11107e-11 -1.05401e-10 -3.39949e-11 -1.11107e-11 -1.54447e-14 -3.39949e-11 4.07051e-13 -1.00125e-09 9.56031e-10 9.06166e-09 3.24396e-09 9.56031e-10 -1.05401e-10 3.24396e-09 -1.15039e-09 9.06166e-09 3.24396e-09 9.28175e-08 -1.26604e-09 3.24396e-09 -1.15039e-09 -1.26604e-09 -5.1532e-09 -1.05401e-10 -3.39949e-11 -1.15039e-09 8.0226e-11 -3.39949e-11 4.07051e-13 8.0226e-11 -3.6932e-13 -1.15039e-09 8.0226e-11 -5.1532e-09 1.37086e-09 8.0226e-11 -3.6932e-13 1.37086e-09 -9.37771e-13 6.32185e-06 7.38243e-06 0.00010304 2.30881e-05 7.38243e-06 -9.00416e-07 2.30881e-05 -7.77014e-06 0.00010304 2.30881e-05 0.000676412 1.86545e-05 2.30881e-05 -7.77014e-06 1.86545e-05 -3.85909e-05 -9.00416e-07 -2.84727e-07 -7.77014e-06 -1.30938e-07 -2.84727e-07 9.28175e-08 -1.30938e-07 4.53462e-07 -7.77014e-06 -1.30938e-07 -3.85909e-05 5.58932e-06 -1.30938e-07 4.53462e-07 5.58932e-06 9.87079e-07 0.000676412 1.86545e-05 0.00314467 -0.000345418 1.86545e-05 -3.85909e-05 -0.000345418 -0.000112886 0.00314467 -0.000345418 0.0101912 -0.00273684 -0.000345418 -0.000112886 -0.00273684 -6.14024e-05 -3.85909e-05 5.58932e-06 -0.000112886 4.03132e-05 5.58932e-06 9.87079e-07 4.03132e-05 -2.63587e-06 -0.000112886 4.03132e-05 -6.14024e-05 0.000165814 4.03132e-05 -2.63587e-06 0.000165814 -3.71326e-05 9.28175e-08 -1.26604e-09 4.53462e-07 -8.85603e-08 -1.26604e-09 -5.1532e-09 -8.85603e-08 -5.32415e-09 4.53462e-07 -8.85603e-08 9.87079e-07 -5.39762e-07 -8.85603e-08 -5.32415e-09 -5.39762e-07 7.81348e-08 -5.1532e-09 1.37086e-09 -5.32415e-09 6.41822e-09 1.37086e-09 -9.37771e-13 6.41822e-09 -1.24875e-11 -5.32415e-09 6.41822e-09 7.81348e-08 8.6351e-09 6.41822e-09 -1.24875e-11 8.6351e-09 -5.40436e-11 9.87079e-07 -5.39762e-07 -2.63587e-06 -1.65931e-06 -5.39762e-07 7.81348e-08 -1.65931e-06 6.04648e-07 -2.63587e-06 -1.65931e-06 -3.71326e-05 4.55195e-07 -1.65931e-06 6.04648e-07 4.55195e-07 2.00423e-06 7.81348e-08 8.6351e-09 6.04648e-07 -8.68745e-08 8.6351e-09 -5.40436e-11 -8.68745e-08 1.46677e-10 6.04648e-07 -8.68745e-08 2.00423e-06 -6.40794e-07 -8.68745e-08 1.46677e-10 -6.40794e-07 1.57479e-09 24.6394 24.3619 22.8394 23.0547 24.3619 22.3175 23.0547 24.1639 22.8394 23.0547 22.0475 22.1229 23.0547 24.1639 22.1229 21.6463 22.3175 14.715 24.1639 25.0462 14.715 3.95406 25.0462 10.2592 24.1639 25.0462 21.6463 24.4619 25.0462 10.2592 24.4619 20.1254 22.0475 22.1229 22.6656 22.7221 22.1229 21.6463 22.7221 22.5003 22.6656 22.7221 22.608 22.6817 22.7221 22.5003 22.6817 22.8048 21.6463 24.4619 22.5003 21.5444 24.4619 20.1254 21.5444 27.5052 22.5003 21.5444 22.8048 22.4291 21.5444 27.5052 22.4291 25.2158 3.95406 -0.248249 10.2592 -1.86645 -0.248249 -0.235272 -1.86645 -0.71192 10.2592 -1.86645 20.1254 -7.84511 -1.86645 -0.71192 -7.84511 -1.52629 -0.235272 0.0235141 -0.71192 0.170036 0.0235141 0.0101912 0.170036 0.019072 -0.71192 0.170036 -1.52629 0.784553 0.170036 0.019072 0.784553 -0.0292449 20.1254 -7.84511 27.5052 -21.1897 -7.84511 -1.52629 -21.1897 -1.15013 27.5052 -21.1897 25.2158 -33.4341 -21.1897 -1.15013 -33.4341 5.26431 -1.52629 0.784553 -1.15013 2.61777 0.784553 -0.0292449 2.61777 -0.416062 -1.15013 2.61777 5.26431 6.40448 2.61777 -0.416062 6.40448 -2.0412 22.608 22.6817 22.4284 22.8797 22.6817 22.8048 22.8797 21.5227 22.4284 22.8797 22.4695 22.9532 22.8797 21.5227 22.9532 21.4603 22.8048 22.4291 21.5227 26.4519 22.4291 25.2158 26.4519 -6.15662 21.5227 26.4519 21.4603 26.334 26.4519 -6.15662 26.334 -25.8703 22.4695 22.9532 22.4944 22.897 22.9532 21.4603 22.897 21.7087 22.4944 22.897 22.4427 22.9642 22.897 21.7087 22.9642 21.412 21.4603 26.334 21.7087 25.7542 26.334 -25.8703 25.7542 -22.8717 21.7087 25.7542 21.412 26.7835 25.7542 -22.8717 26.7835 -28.6872 25.2158 -33.4341 -6.15662 -30.6652 -33.4341 5.26431 -30.6652 20.2237 -6.15662 -30.6652 -25.8703 -23.8879 -30.6652 20.2237 -23.8879 32.2653 5.26431 6.40448 20.2237 10.1419 6.40448 -2.0412 10.1419 -6.72706 20.2237 10.1419 32.2653 3.7774 10.1419 -6.72706 3.7774 -15.0931 -25.8703 -23.8879 -22.8717 -27.2646 -23.8879 32.2653 -27.2646 34.3041 -22.8717 -27.2646 -28.6872 -12.911 -27.2646 34.3041 -12.911 34.1079 32.2653 3.7774 34.3041 -20.3028 3.7774 -15.0931 -20.3028 -20.1696 34.3041 -20.3028 34.1079 -32.6089 -20.3028 -20.1696 -32.6089 -8.5083 0.0101912 -0.00273684 0.019072 -0.0129268 -0.00273684 -6.14024e-05 -0.0129268 0.00161883 0.019072 -0.0129268 -0.0292449 -0.040877 -0.0129268 0.00161883 -0.040877 0.0110763 -6.14024e-05 0.000165814 0.00161883 0.000342497 0.000165814 -3.71326e-05 0.000342497 -0.000181069 0.00161883 0.000342497 0.0110763 -0.000464883 0.000342497 -0.000181069 -0.000464883 -0.000516749 -0.0292449 -0.040877 -0.416062 -0.0776654 -0.040877 0.0110763 -0.0776654 0.0456888 -0.416062 -0.0776654 -2.0412 0.0410542 -0.0776654 0.0456888 0.0410542 0.128247 0.0110763 -0.000464883 0.0456888 -0.00802381 -0.000464883 -0.000516749 -0.00802381 -0.000330703 0.0456888 -0.00802381 0.128247 -0.0413078 -0.00802381 -0.000330703 -0.0413078 0.00528897 -3.71326e-05 4.55195e-07 -0.000181069 3.12059e-05 4.55195e-07 2.00423e-06 3.12059e-05 1.18156e-06 -0.000181069 3.12059e-05 -0.000516749 0.000182669 3.12059e-05 1.18156e-06 0.000182669 -2.78237e-05 2.00423e-06 -6.40794e-07 1.18156e-06 -2.13012e-06 -6.40794e-07 1.57479e-09 -2.13012e-06 4.00927e-09 1.18156e-06 -2.13012e-06 -2.78237e-05 -9.124e-07 -2.13012e-06 4.00927e-09 -9.124e-07 7.72689e-09 -0.000516749 0.000182669 -0.000330703 0.000583518 0.000182669 -2.78237e-05 0.000583518 -0.000175546 -0.000330703 0.000583518 0.00528897 0.000730326 0.000583518 -0.000175546 0.000730326 -0.000569646 -2.78237e-05 -9.124e-07 -0.000175546 2.78469e-05 -9.124e-07 7.72689e-09 2.78469e-05 -4.97074e-08 -0.000175546 2.78469e-05 -0.000569646 0.000159406 2.78469e-05 -4.97074e-08 0.000159406 -3.88207e-07 -2.0412 0.0410542 -6.72706 1.06848 0.0410542 0.128247 1.06848 0.192072 -6.72706 1.06848 -15.0931 4.91623 1.06848 0.192072 4.91623 -0.245234 0.128247 -0.0413078 0.192072 -0.134825 -0.0413078 0.00528897 -0.134825 0.0331077 0.192072 -0.134825 -0.245234 -0.28789 -0.134825 0.0331077 -0.28789 0.11922 -15.0931 4.91623 -20.1696 13.8494 4.91623 -0.245234 13.8494 -2.70482 -20.1696 13.8494 -8.5083 26.1454 13.8494 -2.70482 26.1454 -10.057 -0.245234 -0.28789 -2.70482 -0.240935 -0.28789 0.11922 -0.240935 0.296259 -2.70482 -0.240935 -10.057 1.13634 -0.240935 0.296259 1.13634 0.429529 0.00528897 0.000730326 0.0331077 -0.00317558 0.000730326 -0.000569646 -0.00317558 -0.000872556 0.0331077 -0.00317558 0.11922 -0.0248046 -0.00317558 -0.000872556 -0.0248046 0.00181079 -0.000569646 0.000159406 -0.000872556 0.000489958 0.000159406 -3.88207e-07 0.000489958 -1.1542e-06 -0.000872556 0.000489958 0.00181079 0.000725508 0.000489958 -1.1542e-06 0.000725508 -1.25563e-06 0.11922 -0.0248046 0.296259 -0.0964335 -0.0248046 0.00181079 -0.0964335 0.018302 0.296259 -0.0964335 0.429529 -0.252583 -0.0964335 0.018302 -0.252583 0.0725426 0.00181079 0.000725508 0.018302 -0.00144212 0.000725508 -1.25563e-06 -0.00144212 4.51833e-06 0.018302 -0.00144212 0.0725426 -0.0134522 -0.00144212 4.51833e-06 -0.0134522 3.14545e-05 22.4427 22.9642 22.4944 22.897 22.9642 21.4119 22.897 21.7087 22.4944 22.897 22.4695 22.9532 22.897 21.7087 22.9532 21.4603 21.4119 26.7837 21.7087 25.7542 26.7837 -28.6885 25.7542 -22.8719 21.7087 25.7542 21.4603 26.334 25.7542 -22.8719 26.334 -25.8704 22.4695 22.9532 22.4284 22.8797 22.9532 21.4603 22.8797 21.5227 22.4284 22.8797 22.608 22.6817 22.8797 21.5227 22.6817 22.8048 21.4603 26.334 21.5227 26.4518 26.334 -25.8704 26.4518 -6.1558 21.5227 26.4518 22.8048 22.429 26.4518 -6.1558 22.429 25.2164 -28.6885 -12.9049 -22.8719 -27.2647 -12.9049 34.1081 -27.2647 34.3023 -22.8719 -27.2647 -25.8704 -23.8872 -27.2647 34.3023 -23.8872 32.2633 34.1081 -32.6126 34.3023 -20.2905 -32.6126 -8.49479 -20.2905 -20.1619 34.3023 -20.2905 32.2633 3.79289 -20.2905 -20.1619 3.79289 -15.087 -25.8704 -23.8872 -6.1558 -30.6658 -23.8872 32.2633 -30.6658 20.2279 -6.1558 -30.6658 25.2164 -33.4345 -30.6658 20.2279 -33.4345 5.26819 32.2633 3.79289 20.2279 10.1496 3.79289 -15.087 10.1496 -6.72336 20.2279 10.1496 5.26819 6.40783 10.1496 -6.72336 6.40783 -2.03968 22.608 22.6817 22.6656 22.7221 22.6817 22.8048 22.7221 22.5003 22.6656 22.7221 22.0475 22.1229 22.7221 22.5003 22.1229 21.6463 22.8048 22.429 22.5003 21.5443 22.429 25.2164 21.5443 27.5053 22.5003 21.5443 21.6463 24.4618 21.5443 27.5053 24.4618 20.1254 22.0475 22.1229 22.8394 23.0547 22.1229 21.6463 23.0547 24.1639 22.8394 23.0547 24.6394 24.3619 23.0547 24.1639 24.3619 22.3175 21.6463 24.4618 24.1639 25.0462 24.4618 20.1254 25.0462 10.2592 24.1639 25.0462 22.3175 14.715 25.0462 10.2592 14.715 3.95407 25.2164 -33.4345 27.5053 -21.1892 -33.4345 5.26819 -21.1892 -1.14855 27.5053 -21.1892 20.1254 -7.84471 -21.1892 -1.14855 -7.84471 -1.52579 5.26819 6.40783 -1.14855 2.61902 6.40783 -2.03968 2.61902 -0.415522 -1.14855 2.61902 -1.52579 0.784941 2.61902 -0.415522 0.784941 -0.0290655 20.1254 -7.84471 10.2592 -1.86633 -7.84471 -1.52579 -1.86633 -0.711781 10.2592 -1.86633 3.95407 -0.248222 -1.86633 -0.711781 -0.248222 -0.23524 -1.52579 0.784941 -0.711781 0.170142 0.784941 -0.0290655 0.170142 0.019126 -0.711781 0.170142 -0.23524 0.0235397 0.170142 0.019126 0.0235397 0.0102057 -8.49479 26.1461 -20.1619 13.8515 26.1461 -10.057 13.8515 -2.70512 -20.1619 13.8515 -15.087 4.91733 13.8515 -2.70512 4.91733 -0.245318 -10.057 1.13634 -2.70512 -0.240864 1.13634 0.429339 -0.240864 0.296195 -2.70512 -0.240864 -0.245318 -0.28788 -0.240864 0.296195 -0.28788 0.11921 -15.087 4.91733 -6.72336 1.06898 4.91733 -0.245318 1.06898 0.19207 -6.72336 1.06898 -2.03968 0.0413263 1.06898 0.19207 0.0413263 0.12825 -0.245318 -0.28788 0.19207 -0.134829 -0.28788 0.11921 -0.134829 0.0331082 0.19207 -0.134829 0.12825 -0.0413097 -0.134829 0.0331082 -0.0413097 0.00528967 0.429339 -0.252625 0.296195 -0.0964499 -0.252625 0.0725486 -0.0964499 0.0183042 0.296195 -0.0964499 0.11921 -0.0248112 -0.0964499 0.0183042 -0.0248112 0.00181167 0.0725486 -0.0134529 0.0183042 -0.00144182 -0.0134529 3.06259e-05 -0.00144182 3.98599e-06 0.0183042 -0.00144182 0.00181167 0.00072575 -0.00144182 3.98599e-06 0.00072575 -1.44557e-06 0.11921 -0.0248112 0.0331082 -0.00317736 -0.0248112 0.00181167 -0.00317736 -0.000872343 0.0331082 -0.00317736 0.00528967 0.000730189 -0.00317736 -0.000872343 0.000730189 -0.000569625 0.00181167 0.00072575 -0.000872343 0.000490089 0.00072575 -1.44557e-06 0.000490089 -1.21467e-06 -0.000872343 0.000490089 -0.000569625 0.000159459 0.000490089 -1.21467e-06 0.000159459 -4.01e-07 -2.03968 0.0413263 -0.415522 -0.0775414 0.0413263 0.12825 -0.0775414 0.0456951 -0.415522 -0.0775414 -0.0290655 -0.040829 -0.0775414 0.0456951 -0.040829 0.011081 0.12825 -0.0413097 0.0456951 -0.00802479 -0.0413097 0.00528967 -0.00802479 -0.000330346 0.0456951 -0.00802479 0.011081 -0.000465189 -0.00802479 -0.000330346 -0.000465189 -0.000516641 -0.0290655 -0.040829 0.019126 -0.0129102 -0.040829 0.011081 -0.0129102 0.00162124 0.019126 -0.0129102 0.0102057 -0.00273163 -0.0129102 0.00162124 -0.00273163 -6.04091e-05 0.011081 -0.000465189 0.00162124 0.000342502 -0.000465189 -0.000516641 0.000342502 -0.00018105 0.00162124 0.000342502 -6.04091e-05 0.000165865 0.000342502 -0.00018105 0.000165865 -3.71309e-05 0.00528967 0.000730189 -0.000330346 0.000583611 0.000730189 -0.000569625 0.000583611 -0.000175531 -0.000330346 0.000583611 -0.000516641 0.000182734 0.000583611 -0.000175531 0.000182734 -2.78121e-05 -0.000569625 0.000159459 -0.000175531 2.78599e-05 0.000159459 -4.01e-07 2.78599e-05 -4.98133e-08 -0.000175531 2.78599e-05 -2.78121e-05 -9.08983e-07 2.78599e-05 -4.98133e-08 -9.08983e-07 8.49255e-09 -0.000516641 0.000182734 -0.00018105 3.12328e-05 0.000182734 -2.78121e-05 3.12328e-05 1.18791e-06 -0.00018105 3.12328e-05 -3.71309e-05 4.63027e-07 3.12328e-05 1.18791e-06 4.63027e-07 2.00701e-06 -2.78121e-05 -9.08983e-07 1.18791e-06 -2.12896e-06 -9.08983e-07 8.49255e-09 -2.12896e-06 4.31481e-09 1.18791e-06 -2.12896e-06 2.00701e-06 -6.40308e-07 -2.12896e-06 4.31481e-09 -6.40308e-07 1.6496e-09 24.6394 24.3619 16.1263 14.8233 24.3619 22.3175 14.8233 10.8466 16.1263 14.8233 5.69308 4.98882 14.8233 10.8466 4.98882 3.25243 22.3175 14.715 10.8466 5.29865 14.715 3.95407 5.29865 1.31892 10.8466 5.29865 3.25243 1.45405 5.29865 1.31892 1.45405 0.37978 5.69308 4.98882 1.35952 1.17637 4.98882 3.25243 1.17637 0.752002 1.35952 1.17637 0.265972 0.231045 1.17637 0.752002 0.231045 0.15004 3.25243 1.45405 0.752002 0.339237 1.45405 0.37978 0.339237 0.0962591 0.752002 0.339237 0.15004 0.0704166 0.339237 0.0962591 0.0704166 0.0219398 3.95407 -0.248222 1.31892 0.0136722 -0.248222 -0.23524 0.0136722 -0.0603376 1.31892 0.0136722 0.37978 0.0251182 0.0136722 -0.0603376 0.0251182 -0.0129332 -0.23524 0.0235397 -0.0603376 -0.000618132 0.0235397 0.0102057 -0.000618132 0.00314812 -0.0603376 -0.000618132 -0.0129332 -0.00152659 -0.000618132 0.00314812 -0.00152659 0.000677104 0.37978 0.0251182 0.0962591 0.0109628 0.0251182 -0.0129332 0.0109628 -0.00217848 0.0962591 0.0109628 0.0219398 0.0034327 0.0109628 -0.00217848 0.0034327 -0.000225418 -0.0129332 -0.00152659 -0.00217848 -0.000593715 -0.00152659 0.000677104 -0.000593715 0.000103148 -0.00217848 -0.000593715 -0.000225418 -0.000159259 -0.000593715 0.000103148 -0.000159259 6.32911e-06 0.265972 0.231045 0.0465 0.0407063 0.231045 0.15004 0.0407063 0.0270952 0.0465 0.0407063 0.00753078 0.00664661 0.0407063 0.0270952 0.00664661 0.00453963 0.15004 0.0704166 0.0270952 0.0133429 0.0704166 0.0219398 0.0133429 0.00455283 0.0270952 0.0133429 0.00453963 0.0023455 0.0133429 0.00455283 0.0023455 0.000870462 0.00753078 0.00664661 0.0011713 0.00104214 0.00664661 0.00453963 0.00104214 0.000729959 0.0011713 0.00104214 0.000333276 0.00029858 0.00104214 0.000729959 0.00029858 0.000213678 0.00453963 0.0023455 0.000729959 0.000395019 0.0023455 0.000870462 0.000395019 0.000158491 0.000729959 0.000395019 0.000213678 0.000120214 0.000395019 0.000158491 0.000120214 5.13904e-05 0.0219398 0.0034327 0.00455283 0.000893413 0.0034327 -0.000225418 0.000893413 1.49062e-05 0.00455283 0.000893413 0.000870462 0.000203449 0.000893413 1.49062e-05 0.000203449 1.59343e-05 -0.000225418 -0.000159259 1.49062e-05 -3.31896e-05 -0.000159259 6.32911e-06 -3.31896e-05 -2.36857e-06 1.49062e-05 -3.31896e-05 1.59343e-05 -5.40796e-06 -3.31896e-05 -2.36857e-06 -5.40796e-06 -1.10179e-06 0.000870462 0.000203449 0.000158491 4.28628e-05 0.000203449 1.59343e-05 4.28628e-05 5.62126e-06 0.000158491 4.28628e-05 5.13904e-05 1.55062e-05 4.28628e-05 5.62126e-06 1.55062e-05 2.66903e-06 1.59343e-05 -5.40796e-06 5.62126e-06 -5.95141e-07 -5.40796e-06 -1.10179e-06 -5.95141e-07 -2.94571e-07 5.62126e-06 -5.95141e-07 2.66903e-06 -2.4245e-08 -5.95141e-07 -2.94571e-07 -2.4245e-08 -1.11203e-07 0.0102057 -0.00273163 0.00314812 -0.000343981 -0.00273163 -6.04091e-05 -0.000343981 -0.000112543 0.00314812 -0.000343981 0.000677104 1.90019e-05 -0.000343981 -0.000112543 1.90019e-05 -3.84889e-05 -6.04091e-05 0.000165865 -0.000112543 4.0348e-05 0.000165865 -3.71309e-05 4.0348e-05 -2.63591e-06 -0.000112543 4.0348e-05 -3.84889e-05 5.60333e-06 4.0348e-05 -2.63591e-06 5.60333e-06 9.87565e-07 0.000677104 1.90019e-05 0.000103148 2.31588e-05 1.90019e-05 -3.84889e-05 2.31588e-05 -7.74436e-06 0.000103148 2.31588e-05 6.32911e-06 7.39298e-06 2.31588e-05 -7.74436e-06 7.39298e-06 -8.94544e-07 -3.84889e-05 5.60333e-06 -7.74436e-06 -1.26132e-07 5.60333e-06 9.87565e-07 -1.26132e-07 4.53615e-07 -7.74436e-06 -1.26132e-07 -8.94544e-07 -2.83764e-07 -1.26132e-07 4.53615e-07 -2.83764e-07 9.29507e-08 -3.71309e-05 4.63027e-07 -2.63591e-06 -1.65748e-06 4.63027e-07 2.00701e-06 -1.65748e-06 6.05609e-07 -2.63591e-06 -1.65748e-06 9.87565e-07 -5.39473e-07 -1.65748e-06 6.05609e-07 -5.39473e-07 7.83951e-08 2.00701e-06 -6.40308e-07 6.05609e-07 -8.67006e-08 -6.40308e-07 1.6496e-09 -8.67006e-08 1.68713e-10 6.05609e-07 -8.67006e-08 7.83951e-08 8.71141e-09 -8.67006e-08 1.68713e-10 8.71141e-09 -5.18299e-11 9.87565e-07 -5.39473e-07 4.53615e-07 -8.84966e-08 -5.39473e-07 7.83951e-08 -8.84966e-08 -5.27386e-09 4.53615e-07 -8.84966e-08 9.29507e-08 -1.28019e-09 -8.84966e-08 -5.27386e-09 -1.28019e-09 -5.14949e-09 7.83951e-08 8.71141e-09 -5.27386e-09 6.4336e-09 8.71141e-09 -5.18299e-11 6.4336e-09 -1.1565e-11 -5.27386e-09 6.4336e-09 -5.14949e-09 1.3