# vtk DataFile Version 3.0
#This file was generated by the deal.II library on 2023/3/8 at 18:39:22
ASCII
DATASET UNSTRUCTURED_GRID

FIELD FieldData 2
CYCLE 1 1 int
68
TIME 1 1 double
0.136
POINTS 1024 double
2 0 0
1.84776 1.22465e-16 0.765367
2.07612 0.382683 0
1.91809 0.382683 0.794497
1.84776 1.22465e-16 0.765367
1.41421 1.22465e-16 1.41421
1.91809 0.382683 0.794497
1.46804 0.382683 1.46804
2.07612 0.382683 0
1.91809 0.382683 0.794497
2.29289 0.707107 0
2.11836 0.707107 0.877452
1.91809 0.382683 0.794497
1.46804 0.382683 1.46804
2.11836 0.707107 0.877452
1.62132 0.707107 1.62132
1.41421 1.22465e-16 1.41421
0.765367 1.22465e-16 1.84776
1.46804 0.382683 1.46804
0.794497 0.382683 1.91809
0.765367 1.22465e-16 1.84776
0 0 2
0.794497 0.382683 1.91809
1.27126e-16 0.382683 2.07612
1.46804 0.382683 1.46804
0.794497 0.382683 1.91809
1.62132 0.707107 1.62132
0.877452 0.707107 2.11836
0.794497 0.382683 1.91809
1.27126e-16 0.382683 2.07612
0.877452 0.707107 2.11836
1.40399e-16 0.707107 2.29289
2.29289 0.707107 0
2.11836 0.707107 0.877452
2.61732 0.92388 0
2.41809 0.92388 1.0016
2.11836 0.707107 0.877452
1.62132 0.707107 1.62132
2.41809 0.92388 1.0016
1.85072 0.92388 1.85072
2.61732 0.92388 0
2.41809 0.92388 1.0016
3 1 0
2.77164 1 1.14805
2.41809 0.92388 1.0016
1.85072 0.92388 1.85072
2.77164 1 1.14805
2.12132 1 2.12132
1.62132 0.707107 1.62132
0.877452 0.707107 2.11836
1.85072 0.92388 1.85072
1.0016 0.92388 2.41809
0.877452 0.707107 2.11836
1.40399e-16 0.707107 2.29289
1.0016 0.92388 2.41809
1.60264e-16 0.92388 2.61732
1.85072 0.92388 1.85072
1.0016 0.92388 2.41809
2.12132 1 2.12132
1.14805 1 2.77164
1.0016 0.92388 2.41809
1.60264e-16 0.92388 2.61732
1.14805 1 2.77164
0 1 3
3 -1 0
2.77164 -1 1.14805
2.61732 -0.92388 0
2.41809 -0.92388 1.0016
2.77164 -1 1.14805
2.12132 -1 2.12132
2.41809 -0.92388 1.0016
1.85072 -0.92388 1.85072
2.61732 -0.92388 0
2.41809 -0.92388 1.0016
2.29289 -0.707107 0
2.11836 -0.707107 0.877452
2.41809 -0.92388 1.0016
1.85072 -0.92388 1.85072
2.11836 -0.707107 0.877452
1.62132 -0.707107 1.62132
2.12132 -1 2.12132
1.14805 -1 2.77164
1.85072 -0.92388 1.85072
1.0016 -0.92388 2.41809
1.14805 -1 2.77164
0 -1 3
1.0016 -0.92388 2.41809
1.60264e-16 -0.92388 2.61732
1.85072 -0.92388 1.85072
1.0016 -0.92388 2.41809
1.62132 -0.707107 1.62132
0.877452 -0.707107 2.11836
1.0016 -0.92388 2.41809
1.60264e-16 -0.92388 2.61732
0.877452 -0.707107 2.11836
1.40399e-16 -0.707107 2.29289
2.29289 -0.707107 0
2.11836 -0.707107 0.877452
2.07612 -0.382683 0
1.91809 -0.382683 0.794497
2.11836 -0.707107 0.877452
1.62132 -0.707107 1.62132
1.91809 -0.382683 0.794497
1.46804 -0.382683 1.46804
2.07612 -0.382683 0
1.91809 -0.382683 0.794497
2 0 0
1.84776 1.22465e-16 0.765367
1.91809 -0.382683 0.794497
1.46804 -0.382683 1.46804
1.84776 1.22465e-16 0.765367
1.41421 1.22465e-16 1.41421
1.62132 -0.707107 1.62132
0.877452 -0.707107 2.11836
1.46804 -0.382683 1.46804
0.794497 -0.382683 1.91809
0.877452 -0.707107 2.11836
1.40399e-16 -0.707107 2.29289
0.794497 -0.382683 1.91809
1.27126e-16 -0.382683 2.07612
1.46804 -0.382683 1.46804
0.794497 -0.382683 1.91809
1.41421 1.22465e-16 1.41421
0.765367 1.22465e-16 1.84776
0.794497 -0.382683 1.91809
1.27126e-16 -0.382683 2.07612
0.765367 1.22465e-16 1.84776
0 0 2
4 0 0
3.69552 0 1.53073
3.92388 -0.382683 0
3.62519 -0.382683 1.5016
3.69552 0 1.53073
2.82843 0 2.82843
3.62519 -0.382683 1.5016
2.7746 -0.382683 2.7746
3.92388 -0.382683 0
3.62519 -0.382683 1.5016
3.70711 -0.707107 0
3.42492 -0.707107 1.41865
3.62519 -0.382683 1.5016
2.7746 -0.382683 2.7746
3.42492 -0.707107 1.41865
2.62132 -0.707107 2.62132
2.82843 0 2.82843
1.53073 0 3.69552
2.7746 -0.382683 2.7746
1.5016 -0.382683 3.62519
1.53073 0 3.69552
0 0 4
1.5016 -0.382683 3.62519
2.40268e-16 -0.382683 3.92388
2.7746 -0.382683 2.7746
1.5016 -0.382683 3.62519
2.62132 -0.707107 2.62132
1.41865 -0.707107 3.42492
1.5016 -0.382683 3.62519
2.40268e-16 -0.382683 3.92388
1.41865 -0.707107 3.42492
2.26995e-16 -0.707107 3.70711
3.70711 -0.707107 0
3.42492 -0.707107 1.41865
3.38268 -0.92388 0
3.12519 -0.92388 1.2945
3.42492 -0.707107 1.41865
2.62132 -0.707107 2.62132
3.12519 -0.92388 1.2945
2.39192 -0.92388 2.39192
3.38268 -0.92388 0
3.12519 -0.92388 1.2945
3 -1 0
2.77164 -1 1.14805
3.12519 -0.92388 1.2945
2.39192 -0.92388 2.39192
2.77164 -1 1.14805
2.12132 -1 2.12132
2.62132 -0.707107 2.62132
1.41865 -0.707107 3.42492
2.39192 -0.92388 2.39192
1.2945 -0.92388 3.12519
1.41865 -0.707107 3.42492
2.26995e-16 -0.707107 3.70711
1.2945 -0.92388 3.12519
2.0713e-16 -0.92388 3.38268
2.39192 -0.92388 2.39192
1.2945 -0.92388 3.12519
2.12132 -1 2.12132
1.14805 -1 2.77164
1.2945 -0.92388 3.12519
2.0713e-16 -0.92388 3.38268
1.14805 -1 2.77164
0 -1 3
3 1 0
2.77164 1 1.14805
3.38268 0.92388 0
3.12519 0.92388 1.2945
2.77164 1 1.14805
2.12132 1 2.12132
3.12519 0.92388 1.2945
2.39192 0.92388 2.39192
3.38268 0.92388 0
3.12519 0.92388 1.2945
3.70711 0.707107 0
3.42492 0.707107 1.41865
3.12519 0.92388 1.2945
2.39192 0.92388 2.39192
3.42492 0.707107 1.41865
2.62132 0.707107 2.62132
2.12132 1 2.12132
1.14805 1 2.77164
2.39192 0.92388 2.39192
1.2945 0.92388 3.12519
1.14805 1 2.77164
0 1 3
1.2945 0.92388 3.12519
2.0713e-16 0.92388 3.38268
2.39192 0.92388 2.39192
1.2945 0.92388 3.12519
2.62132 0.707107 2.62132
1.41865 0.707107 3.42492
1.2945 0.92388 3.12519
2.0713e-16 0.92388 3.38268
1.41865 0.707107 3.42492
2.26995e-16 0.707107 3.70711
3.70711 0.707107 0
3.42492 0.707107 1.41865
3.92388 0.382683 0
3.62519 0.382683 1.5016
3.42492 0.707107 1.41865
2.62132 0.707107 2.62132
3.62519 0.382683 1.5016
2.7746 0.382683 2.7746
3.92388 0.382683 0
3.62519 0.382683 1.5016
4 0 0
3.69552 0 1.53073
3.62519 0.382683 1.5016
2.7746 0.382683 2.7746
3.69552 0 1.53073
2.82843 0 2.82843
2.62132 0.707107 2.62132
1.41865 0.707107 3.42492
2.7746 0.382683 2.7746
1.5016 0.382683 3.62519
1.41865 0.707107 3.42492
2.26995e-16 0.707107 3.70711
1.5016 0.382683 3.62519
2.40268e-16 0.382683 3.92388
2.7746 0.382683 2.7746
1.5016 0.382683 3.62519
2.82843 0 2.82843
1.53073 0 3.69552
1.5016 0.382683 3.62519
2.40268e-16 0.382683 3.92388
1.53073 0 3.69552
0 0 4
0 0 2
-0.765367 1.22465e-16 1.84776
1.27126e-16 0.382683 2.07612
-0.794497 0.382683 1.91809
-0.765367 1.22465e-16 1.84776
-1.41421 1.22465e-16 1.41421
-0.794497 0.382683 1.91809
-1.46804 0.382683 1.46804
1.27126e-16 0.382683 2.07612
-0.794497 0.382683 1.91809
1.40399e-16 0.707107 2.29289
-0.877452 0.707107 2.11836
-0.794497 0.382683 1.91809
-1.46804 0.382683 1.46804
-0.877452 0.707107 2.11836
-1.62132 0.707107 1.62132
-1.41421 1.22465e-16 1.41421
-1.84776 1.22465e-16 0.765367
-1.46804 0.382683 1.46804
-1.91809 0.382683 0.794497
-1.84776 1.22465e-16 0.765367
-2 0 0
-1.91809 0.382683 0.794497
-2.07612 0.382683 2.54251e-16
-1.46804 0.382683 1.46804
-1.91809 0.382683 0.794497
-1.62132 0.707107 1.62132
-2.11836 0.707107 0.877452
-1.91809 0.382683 0.794497
-2.07612 0.382683 2.54251e-16
-2.11836 0.707107 0.877452
-2.29289 0.707107 2.80798e-16
1.40399e-16 0.707107 2.29289
-0.877452 0.707107 2.11836
1.60264e-16 0.92388 2.61732
-1.0016 0.92388 2.41809
-0.877452 0.707107 2.11836
-1.62132 0.707107 1.62132
-1.0016 0.92388 2.41809
-1.85072 0.92388 1.85072
1.60264e-16 0.92388 2.61732
-1.0016 0.92388 2.41809
0 1 3
-1.14805 1 2.77164
-1.0016 0.92388 2.41809
-1.85072 0.92388 1.85072
-1.14805 1 2.77164
-2.12132 1 2.12132
-1.62132 0.707107 1.62132
-2.11836 0.707107 0.877452
-1.85072 0.92388 1.85072
-2.41809 0.92388 1.0016
-2.11836 0.707107 0.877452
-2.29289 0.707107 2.80798e-16
-2.41809 0.92388 1.0016
-2.61732 0.92388 3.20529e-16
-1.85072 0.92388 1.85072
-2.41809 0.92388 1.0016
-2.12132 1 2.12132
-2.77164 1 1.14805
-2.41809 0.92388 1.0016
-2.61732 0.92388 3.20529e-16
-2.77164 1 1.14805
-3 1 0
0 -1 3
-1.14805 -1 2.77164
1.60264e-16 -0.92388 2.61732
-1.0016 -0.92388 2.41809
-1.14805 -1 2.77164
-2.12132 -1 2.12132
-1.0016 -0.92388 2.41809
-1.85072 -0.92388 1.85072
1.60264e-16 -0.92388 2.61732
-1.0016 -0.92388 2.41809
1.40399e-16 -0.707107 2.29289
-0.877452 -0.707107 2.11836
-1.0016 -0.92388 2.41809
-1.85072 -0.92388 1.85072
-0.877452 -0.707107 2.11836
-1.62132 -0.707107 1.62132
-2.12132 -1 2.12132
-2.77164 -1 1.14805
-1.85072 -0.92388 1.85072
-2.41809 -0.92388 1.0016
-2.77164 -1 1.14805
-3 -1 0
-2.41809 -0.92388 1.0016
-2.61732 -0.92388 3.20529e-16
-1.85072 -0.92388 1.85072
-2.41809 -0.92388 1.0016
-1.62132 -0.707107 1.62132
-2.11836 -0.707107 0.877452
-2.41809 -0.92388 1.0016
-2.61732 -0.92388 3.20529e-16
-2.11836 -0.707107 0.877452
-2.29289 -0.707107 2.80798e-16
1.40399e-16 -0.707107 2.29289
-0.877452 -0.707107 2.11836
1.27126e-16 -0.382683 2.07612
-0.794497 -0.382683 1.91809
-0.877452 -0.707107 2.11836
-1.62132 -0.707107 1.62132
-0.794497 -0.382683 1.91809
-1.46804 -0.382683 1.46804
1.27126e-16 -0.382683 2.07612
-0.794497 -0.382683 1.91809
0 0 2
-0.765367 1.22465e-16 1.84776
-0.794497 -0.382683 1.91809
-1.46804 -0.382683 1.46804
-0.765367 1.22465e-16 1.84776
-1.41421 1.22465e-16 1.41421
-1.62132 -0.707107 1.62132
-2.11836 -0.707107 0.877452
-1.46804 -0.382683 1.46804
-1.91809 -0.382683 0.794497
-2.11836 -0.707107 0.877452
-2.29289 -0.707107 2.80798e-16
-1.91809 -0.382683 0.794497
-2.07612 -0.382683 2.54251e-16
-1.46804 -0.382683 1.46804
-1.91809 -0.382683 0.794497
-1.41421 1.22465e-16 1.41421
-1.84776 1.22465e-16 0.765367
-1.91809 -0.382683 0.794497
-2.07612 -0.382683 2.54251e-16
-1.84776 1.22465e-16 0.765367
-2 0 0
0 0 4
-1.53073 0 3.69552
2.40268e-16 -0.382683 3.92388
-1.5016 -0.382683 3.62519
-1.53073 0 3.69552
-2.82843 0 2.82843
-1.5016 -0.382683 3.62519
-2.7746 -0.382683 2.7746
2.40268e-16 -0.382683 3.92388
-1.5016 -0.382683 3.62519
2.26995e-16 -0.707107 3.70711
-1.41865 -0.707107 3.42492
-1.5016 -0.382683 3.62519
-2.7746 -0.382683 2.7746
-1.41865 -0.707107 3.42492
-2.62132 -0.707107 2.62132
-2.82843 0 2.82843
-3.69552 0 1.53073
-2.7746 -0.382683 2.7746
-3.62519 -0.382683 1.5016
-3.69552 0 1.53073
-4 0 0
-3.62519 -0.382683 1.5016
-3.92388 -0.382683 4.80537e-16
-2.7746 -0.382683 2.7746
-3.62519 -0.382683 1.5016
-2.62132 -0.707107 2.62132
-3.42492 -0.707107 1.41865
[...]
POINT_DATA 1024
SCALARS U double 1
LOOKUP_TABLE default
0.0339992 0.0340583 0.0422682 0.0422874 0.0340583 0.0347634 0.0422874 0.0431567 0.0422682 0.0422874 0.0727981 0.0726722 0.0422874 0.0431567 0.0726722 0.0738335 0.0347634 0.0277194 0.0431567 0.0357012 0.0277194 0.00579355 0.0357012 0.0104871 0.0431567 0.0357012 0.0738335 0.0666767 0.0357012 0.0104871 0.0666767 0.0417175 0.0727981 0.0726722 0.0765043 0.0762419 0.0726722 0.0738335 0.0762419 0.0775138 0.0765043 0.0762419 0.0760101 0.0756655 0.0762419 0.0775138 0.0756655 0.0768814 0.0738335 0.0666767 0.0775138 0.071633 0.0666767 0.0417175 0.071633 0.0445995 0.0775138 0.071633 0.0768814 0.0724553 0.071633 0.0445995 0.0724553 0.043009 0.00105791 0.00105062 0.00360595 0.00359608 0.00105062 0.00107751 0.00359608 0.00369714 0.00360595 0.00359608 0.0123577 0.0123509 0.00359608 0.00369714 0.0123509 0.0126544 0.00107751 0.000978434 0.00369714 0.00307228 0.000978434 7.89512e-05 0.00307228 0.000531498 0.00369714 0.00307228 0.0126544 0.0103276 0.00307228 0.000531498 0.0103276 0.00204289 0.0123577 0.0123509 0.0248165 0.0248466 0.0123509 0.0126544 0.0248466 0.0253772 0.0248165 0.0248466 0.0339992 0.0340583 0.0248466 0.0253772 0.0340583 0.0347634 0.0126544 0.0103276 0.0253772 0.0204081 0.0103276 0.00204289 0.0204081 0.00449052 0.0253772 0.0204081 0.0347634 0.0277194 0.0204081 0.00449052 0.0277194 0.00579355 0.0345441 0.0343694 0.0261617 0.0260265 0.0343694 0.0346641 0.0260265 0.026265 0.0261617 0.0260265 0.0140525 0.0139713 0.0260265 0.026265 0.0139713 0.0141331 0.0346641 0.0347437 0.026265 0.0262489 0.0347437 -0.000794539 0.0262489 -8.97712e-05 0.026265 0.0262489 0.0141331 0.0139888 0.0262489 -8.97712e-05 0.0139888 3.57374e-05 0.0140525 0.0139713 0.00461042 0.00457951 0.0139713 0.0141331 0.00457951 0.00465031 0.00461042 0.00457951 0.00105791 0.00105062 0.00457951 0.00465031 0.00105062 0.00107751 0.0141331 0.0139888 0.00465031 0.00453056 0.0139888 3.57374e-05 0.00453056 6.58532e-05 0.00465031 0.00453056 0.00107751 0.000978434 0.00453056 6.58532e-05 0.000978434 7.89512e-05 0.0760101 0.0756655 0.0766645 0.0763053 0.0756655 0.0768814 0.0763053 0.0773502 0.0766645 0.0763053 0.0724507 0.0721217 0.0763053 0.0773502 0.0721217 0.0729491 0.0768814 0.0724553 0.0773502 0.0742461 0.0724553 0.043009 0.0742461 0.0427324 0.0773502 0.0742461 0.0729491 0.0709802 0.0742461 0.0427324 0.0709802 0.0373345 0.0724507 0.0721217 0.0420501 0.0418358 0.0721217 0.0729491 0.0418358 0.0422465 0.0420501 0.0418358 0.0345441 0.0343694 0.0418358 0.0422465 0.0343694 0.0346641 0.0729491 0.0709802 0.0422465 0.0419765 0.0709802 0.0373345 0.0419765 0.00367692 0.0422465 0.0419765 0.0346641 0.0347437 0.0419765 0.00367692 0.0347437 -0.000794539 0.00579355 -0.000697096 0.0104871 -0.000910305 -0.000697096 3.70109e-06 -0.000910305 2.4083e-05 0.0104871 -0.000910305 0.0417175 -0.00330281 -0.000910305 2.4083e-05 -0.00330281 0.000571834 3.70109e-06 2.84775e-05 2.4083e-05 3.50026e-05 2.84775e-05 -1.89596e-05 3.50026e-05 -2.67855e-05 2.4083e-05 3.50026e-05 0.000571834 -8.52171e-05 3.50026e-05 -2.67855e-05 -8.52171e-05 1.83173e-05 0.0417175 -0.00330281 0.0445995 -0.0039234 -0.00330281 0.000571834 -0.0039234 0.000802494 0.0445995 -0.0039234 0.043009 -0.00420627 -0.0039234 0.000802494 -0.00420627 0.000970117 0.000571834 -8.52171e-05 0.000802494 -0.000156858 -8.52171e-05 1.83173e-05 -0.000156858 5.3006e-05 0.000802494 -0.000156858 0.000970117 -0.000224186 -0.000156858 5.3006e-05 -0.000224186 9.16787e-05 7.89512e-05 -2.16999e-05 0.000531498 -9.11985e-05 -2.16999e-05 5.06809e-06 -9.11985e-05 1.06421e-05 0.000531498 -9.11985e-05 0.00204289 -0.000286858 -9.11985e-05 1.06421e-05 -0.000286858 1.94553e-05 5.06809e-06 -1.05353e-06 1.06421e-05 3.35444e-07 -1.05353e-06 3.54841e-07 3.35444e-07 -1.14099e-06 1.06421e-05 3.35444e-07 1.94553e-05 6.01205e-06 3.35444e-07 -1.14099e-06 6.01205e-06 -5.70771e-06 0.00204289 -0.000286858 0.00449052 -0.000530916 -0.000286858 1.94553e-05 -0.000530916 1.17887e-05 0.00449052 -0.000530916 0.00579355 -0.000697096 -0.000530916 1.17887e-05 -0.000697096 3.70109e-06 1.94553e-05 6.01205e-06 1.17887e-05 1.90673e-05 6.01205e-06 -5.70771e-06 1.90673e-05 -1.36446e-05 1.17887e-05 1.90673e-05 3.70109e-06 2.84775e-05 1.90673e-05 -1.36446e-05 2.84775e-05 -1.89596e-05 -0.000794539 -0.0001385 -8.97712e-05 -0.000158302 -0.0001385 8.65201e-05 -0.000158302 7.74286e-05 -8.97712e-05 -0.000158302 3.57374e-05 -0.000109761 -0.000158302 7.74286e-05 -0.000109761 4.69454e-05 8.65201e-05 -3.39884e-05 7.74286e-05 -2.83799e-05 -3.39884e-05 1.91865e-05 -2.83799e-05 1.55611e-05 7.74286e-05 -2.83799e-05 4.69454e-05 -1.61895e-05 -2.83799e-05 1.55611e-05 -1.61895e-05 8.57481e-06 3.57374e-05 -0.000109761 6.58532e-05 -5.03332e-05 -0.000109761 4.69454e-05 -5.03332e-05 1.84958e-05 6.58532e-05 -5.03332e-05 7.89512e-05 -2.16999e-05 -5.03332e-05 1.84958e-05 -2.16999e-05 5.06809e-06 4.69454e-05 -1.61895e-05 1.84958e-05 -5.85317e-06 -1.61895e-05 8.57481e-06 -5.85317e-06 2.93249e-06 1.84958e-05 -5.85317e-06 5.06809e-06 -1.05353e-06 -5.85317e-06 2.93249e-06 -1.05353e-06 3.54841e-07 0.043009 -0.00420627 0.0427324 -0.00438556 -0.00420627 0.000970117 -0.00438556 0.00108036 0.0427324 -0.00438556 0.0373345 -0.00400875 -0.00438556 0.00108036 -0.00400875 0.00103551 0.000970117 -0.000224186 0.00108036 -0.000272035 -0.000224186 9.16787e-05 -0.000272035 0.000120907 0.00108036 -0.000272035 0.00103551 -0.000276083 -0.000272035 0.000120907 -0.000276083 0.000129088 0.0373345 -0.00400875 0.00367692 -0.000581174 -0.00400875 0.00103551 -0.000581174 0.000192589 0.00367692 -0.000581174 -0.000794539 -0.0001385 -0.000581174 0.000192589 -0.0001385 8.65201e-05 0.00103551 -0.000276083 0.000192589 -5.9597e-05 -0.000276083 0.000129088 -5.9597e-05 3.0056e-05 0.000192589 -5.9597e-05 8.65201e-05 -3.39884e-05 -5.9597e-05 3.0056e-05 -3.39884e-05 1.91865e-05 -1.89596e-05 2.84755e-05 -2.67855e-05 3.50004e-05 2.84755e-05 3.69969e-06 3.50004e-05 2.40818e-05 -2.67855e-05 3.50004e-05 1.83173e-05 -8.52185e-05 3.50004e-05 2.40818e-05 -8.52185e-05 0.000571832 3.69969e-06 -0.000697093 2.40818e-05 -0.000910307 -0.000697093 0.00579355 -0.000910307 0.0104871 2.40818e-05 -0.000910307 0.000571832 -0.00330281 -0.000910307 0.0104871 -0.00330281 0.0417175 1.83173e-05 -8.52185e-05 5.3006e-05 -0.000156861 -8.52185e-05 0.000571832 -0.000156861 0.000802495 5.3006e-05 -0.000156861 9.16787e-05 -0.000224185 -0.000156861 0.000802495 -0.000224185 0.000970118 0.000571832 -0.00330281 0.000802495 -0.0039234 -0.00330281 0.0417175 -0.0039234 0.0445995 0.000802495 -0.0039234 0.000970118 -0.00420627 -0.0039234 0.0445995 -0.00420627 0.043009 3.54841e-07 -1.0521e-06 -1.14099e-06 3.36963e-07 -1.0521e-06 5.06926e-06 3.36963e-07 1.06432e-05 -1.14099e-06 3.36963e-07 -5.70771e-06 6.01322e-06 3.36963e-07 1.06432e-05 6.01322e-06 1.94558e-05 5.06926e-06 -2.16996e-05 1.06432e-05 -9.11943e-05 -2.16996e-05 7.89537e-05 -9.11943e-05 0.000531496 1.06432e-05 -9.11943e-05 1.94558e-05 -0.000286856 -9.11943e-05 0.000531496 -0.000286856 0.00204289 -5.70771e-06 6.01322e-06 -1.36446e-05 1.90656e-05 6.01322e-06 1.94558e-05 1.90656e-05 1.17904e-05 -1.36446e-05 1.90656e-05 -1.89596e-05 2.84755e-05 1.90656e-05 1.17904e-05 2.84755e-05 3.69969e-06 1.94558e-05 -0.000286856 1.17904e-05 -0.000530915 -0.000286856 0.00204289 -0.000530915 0.00449052 1.17904e-05 -0.000530915 3.69969e-06 -0.000697093 -0.000530915 0.00449052 -0.000697093 0.00579355 1.91865e-05 -3.39889e-05 1.55611e-05 -2.83791e-05 -3.39889e-05 8.65229e-05 -2.83791e-05 7.74298e-05 1.55611e-05 -2.83791e-05 8.57481e-06 -1.61917e-05 -2.83791e-05 7.74298e-05 -1.61917e-05 4.69485e-05 8.65229e-05 -0.000138502 7.74298e-05 -0.000158304 -0.000138502 -0.000794539 -0.000158304 -8.9769e-05 7.74298e-05 -0.000158304 4.69485e-05 -0.000109763 -0.000158304 -8.9769e-05 -0.000109763 3.57393e-05 8.57481e-06 -1.61917e-05 2.93249e-06 -5.85234e-06 -1.61917e-05 4.69485e-05 -5.85234e-06 1.84944e-05 2.93249e-06 -5.85234e-06 3.54841e-07 -1.0521e-06 -5.85234e-06 1.84944e-05 -1.0521e-06 5.06926e-06 4.69485e-05 -0.000109763 1.84944e-05 -5.03313e-05 -0.000109763 3.57393e-05 -5.03313e-05 6.58518e-05 1.84944e-05 -5.03313e-05 5.06926e-06 -2.16996e-05 -5.03313e-05 6.58518e-05 -2.16996e-05 7.89537e-05 9.16787e-05 -0.000224185 0.000120907 -0.000272034 -0.000224185 0.000970118 -0.000272034 0.00108036 0.000120907 -0.000272034 0.000129088 -0.000276082 -0.000272034 0.00108036 -0.000276082 0.00103551 0.000970118 -0.00420627 0.00108036 -0.00438556 -0.00420627 0.043009 -0.00438556 0.0427324 0.00108036 -0.00438556 0.00103551 -0.00400875 -0.00438556 0.0427324 -0.00400875 0.0373345 0.000129088 -0.000276082 3.0056e-05 -5.95963e-05 -0.000276082 0.00103551 -5.95963e-05 0.000192592 3.0056e-05 -5.95963e-05 1.91865e-05 -3.39889e-05 -5.95963e-05 0.000192592 -3.39889e-05 8.65229e-05 0.00103551 -0.00400875 0.000192592 -0.000581176 -0.00400875 0.0373345 -0.000581176 0.00367691 0.000192592 -0.000581176 8.65229e-05 -0.000138502 -0.000581176 0.00367691 -0.000138502 -0.000794539 0.00579355 0.0277194 0.0104871 0.0357012 0.0277194 0.0347634 0.0357012 0.0431567 0.0104871 0.0357012 0.0417175 0.0666767 0.0357012 0.0431567 0.0666767 0.0738335 0.0347634 0.0340583 0.0431567 0.0422874 0.0340583 0.0339992 0.0422874 0.0422682 0.0431567 0.0422874 0.0738335 0.0726722 0.0422874 0.0422682 0.0726722 0.0727981 0.0417175 0.0666767 0.0445995 0.071633 0.0666767 0.0738335 0.071633 0.0775138 0.0445995 0.071633 0.043009 0.0724553 0.071633 0.0775138 0.0724553 0.0768814 0.0738335 0.0726722 0.0775138 0.0762419 0.0726722 0.0727981 0.0762419 0.0765043 0.0775138 0.0762419 0.0768814 0.0756655 0.0762419 0.0765043 0.0756655 0.0760101 7.89537e-05 0.000978436 0.000531496 0.00307228 0.000978436 0.00107751 0.00307228 0.00369714 0.000531496 0.00307228 0.00204289 0.0103276 0.00307228 0.00369714 0.0103276 0.0126544 0.00107751 0.00105062 0.00369714 0.00359607 0.00105062 0.00105791 0.00359607 0.00360595 0.00369714 0.00359607 0.0126544 0.0123509 0.00359607 0.00360595 0.0123509 0.0123577 0.00204289 0.0103276 0.00449052 0.0204081 0.0103276 0.0126544 0.0204081 0.0253772 0.00449052 0.0204081 0.00579355 0.0277194 0.0204081 0.0253772 0.0277194 0.0347634 0.0126544 0.0123509 0.0253772 0.0248466 0.0123509 0.0123577 0.0248466 0.0248165 0.0253772 0.0248466 0.0347634 0.0340583 0.0248466 0.0248165 0.0340583 0.0339992 -0.000794539 0.0347437 -8.9769e-05 0.0262489 0.0347437 0.0346641 0.0262489 0.026265 -8.9769e-05 0.0262489 3.57393e-05 0.0139888 0.0262489 0.026265 0.0139888 0.0141331 0.0346641 0.0343694 0.026265 0.0260265 0.0343694 0.0345441 0.0260265 0.0261617 0.026265 0.0260265 0.0141331 0.0139713 0.0260265 0.0261617 0.0139713 0.0140525 3.57393e-05 0.0139888 6.58518e-05 0.00453057 0.0139888 0.0141331 0.00453057 0.0046503 6.58518e-05 0.00453057 7.89537e-05 0.000978436 0.00453057 0.0046503 0.000978436 0.00107751 0.0141331 0.0139713 0.0046503 0.00457951 0.0139713 0.0140525 0.00457951 0.00461042 0.0046503 0.00457951 0.00107751 0.00105062 0.00457951 0.00461042 0.00105062 0.00105791 0.043009 0.0724553 0.0427324 0.0742461 0.0724553 0.0768814 0.0742461 0.0773502 0.0427324 0.0742461 0.0373345 0.0709802 0.0742461 0.0773502 0.0709802 0.0729491 0.0768814 0.0756655 0.0773502 0.0763053 0.0756655 0.0760101 0.0763053 0.0766645 0.0773502 0.0763053 0.0729491 0.0721217 0.0763053 0.0766645 0.0721217 0.0724507 0.0373345 0.0709802 0.00367691 0.0419765 0.0709802 0.0729491 0.0419765 0.0422465 0.00367691 0.0419765 -0.000794539 0.0347437 0.0419765 0.0422465 0.0347437 0.0346641 0.0729491 0.0721217 0.0422465 0.0418358 0.0721217 0.0724507 0.0418358 0.0420501 0.0422465 0.0418358 0.0346641 0.0343694 0.0418358 0.0420501 0.0343694 0.0345441 
