# vtk DataFile Version 3.0
#This file was generated by the deal.II library on 2023/3/8 at 18:39:26
ASCII
DATASET UNSTRUCTURED_GRID

FIELD FieldData 2
CYCLE 1 1 int
199
TIME 1 1 double
0.398
POINTS 1024 double
2 0 0
1.84776 1.22465e-16 0.765367
2.07612 0.382683 0
1.91809 0.382683 0.794497
1.84776 1.22465e-16 0.765367
1.41421 1.22465e-16 1.41421
1.91809 0.382683 0.794497
1.46804 0.382683 1.46804
2.07612 0.382683 0
1.91809 0.382683 0.794497
2.29289 0.707107 0
2.11836 0.707107 0.877452
1.91809 0.382683 0.794497
1.46804 0.382683 1.46804
2.11836 0.707107 0.877452
1.62132 0.707107 1.62132
1.41421 1.22465e-16 1.41421
0.765367 1.22465e-16 1.84776
1.46804 0.382683 1.46804
0.794497 0.382683 1.91809
0.765367 1.22465e-16 1.84776
0 0 2
0.794497 0.382683 1.91809
1.27126e-16 0.382683 2.07612
1.46804 0.382683 1.46804
0.794497 0.382683 1.91809
1.62132 0.707107 1.62132
0.877452 0.707107 2.11836
0.794497 0.382683 1.91809
1.27126e-16 0.382683 2.07612
0.877452 0.707107 2.11836
1.40399e-16 0.707107 2.29289
2.29289 0.707107 0
2.11836 0.707107 0.877452
2.61732 0.92388 0
2.41809 0.92388 1.0016
2.11836 0.707107 0.877452
1.62132 0.707107 1.62132
2.41809 0.92388 1.0016
1.85072 0.92388 1.85072
2.61732 0.92388 0
2.41809 0.92388 1.0016
3 1 0
2.77164 1 1.14805
2.41809 0.92388 1.0016
1.85072 0.92388 1.85072
2.77164 1 1.14805
2.12132 1 2.12132
1.62132 0.707107 1.62132
0.877452 0.707107 2.11836
1.85072 0.92388 1.85072
1.0016 0.92388 2.41809
0.877452 0.707107 2.11836
1.40399e-16 0.707107 2.29289
1.0016 0.92388 2.41809
1.60264e-16 0.92388 2.61732
1.85072 0.92388 1.85072
1.0016 0.92388 2.41809
2.12132 1 2.12132
1.14805 1 2.77164
1.0016 0.92388 2.41809
1.60264e-16 0.92388 2.61732
1.14805 1 2.77164
0 1 3
3 -1 0
2.77164 -1 1.14805
2.61732 -0.92388 0
2.41809 -0.92388 1.0016
2.77164 -1 1.14805
2.12132 -1 2.12132
2.41809 -0.92388 1.0016
1.85072 -0.92388 1.85072
2.61732 -0.92388 0
2.41809 -0.92388 1.0016
2.29289 -0.707107 0
2.11836 -0.707107 0.877452
2.41809 -0.92388 1.0016
1.85072 -0.92388 1.85072
2.11836 -0.707107 0.877452
1.62132 -0.707107 1.62132
2.12132 -1 2.12132
1.14805 -1 2.77164
1.85072 -0.92388 1.85072
1.0016 -0.92388 2.41809
1.14805 -1 2.77164
0 -1 3
1.0016 -0.92388 2.41809
1.60264e-16 -0.92388 2.61732
1.85072 -0.92388 1.85072
1.0016 -0.92388 2.41809
1.62132 -0.707107 1.62132
0.877452 -0.707107 2.11836
1.0016 -0.92388 2.41809
1.60264e-16 -0.92388 2.61732
0.877452 -0.707107 2.11836
1.40399e-16 -0.707107 2.29289
2.29289 -0.707107 0
2.11836 -0.707107 0.877452
2.07612 -0.382683 0
1.91809 -0.382683 0.794497
2.11836 -0.707107 0.877452
1.62132 -0.707107 1.62132
1.91809 -0.382683 0.794497
1.46804 -0.382683 1.46804
2.07612 -0.382683 0
1.91809 -0.382683 0.794497
2 0 0
1.84776 1.22465e-16 0.765367
1.91809 -0.382683 0.794497
1.46804 -0.382683 1.46804
1.84776 1.22465e-16 0.765367
1.41421 1.22465e-16 1.41421
1.62132 -0.707107 1.62132
0.877452 -0.707107 2.11836
1.46804 -0.382683 1.46804
0.794497 -0.382683 1.91809
0.877452 -0.707107 2.11836
1.40399e-16 -0.707107 2.29289
0.794497 -0.382683 1.91809
1.27126e-16 -0.382683 2.07612
1.46804 -0.382683 1.46804
0.794497 -0.382683 1.91809
1.41421 1.22465e-16 1.41421
0.765367 1.22465e-16 1.84776
0.794497 -0.382683 1.91809
1.27126e-16 -0.382683 2.07612
0.765367 1.22465e-16 1.84776
0 0 2
4 0 0
3.69552 0 1.53073
3.92388 -0.382683 0
3.62519 -0.382683 1.5016
3.69552 0 1.53073
2.82843 0 2.82843
3.62519 -0.382683 1.5016
2.7746 -0.382683 2.7746
3.92388 -0.382683 0
3.62519 -0.382683 1.5016
3.70711 -0.707107 0
3.42492 -0.707107 1.41865
3.62519 -0.382683 1.5016
2.7746 -0.382683 2.7746
3.42492 -0.707107 1.41865
2.62132 -0.707107 2.62132
2.82843 0 2.82843
1.53073 0 3.69552
2.7746 -0.382683 2.7746
1.5016 -0.382683 3.62519
1.53073 0 3.69552
0 0 4
1.5016 -0.382683 3.62519
2.40268e-16 -0.382683 3.92388
2.7746 -0.382683 2.7746
1.5016 -0.382683 3.62519
2.62132 -0.707107 2.62132
1.41865 -0.707107 3.42492
1.5016 -0.382683 3.62519
2.40268e-16 -0.382683 3.92388
1.41865 -0.707107 3.42492
2.26995e-16 -0.707107 3.70711
3.70711 -0.707107 0
3.42492 -0.707107 1.41865
3.38268 -0.92388 0
3.12519 -0.92388 1.2945
3.42492 -0.707107 1.41865
2.62132 -0.707107 2.62132
3.12519 -0.92388 1.2945
2.39192 -0.92388 2.39192
3.38268 -0.92388 0
3.12519 -0.92388 1.2945
3 -1 0
2.77164 -1 1.14805
3.12519 -0.92388 1.2945
2.39192 -0.92388 2.39192
2.77164 -1 1.14805
2.12132 -1 2.12132
2.62132 -0.707107 2.62132
1.41865 -0.707107 3.42492
2.39192 -0.92388 2.39192
1.2945 -0.92388 3.12519
1.41865 -0.707107 3.42492
2.26995e-16 -0.707107 3.70711
1.2945 -0.92388 3.12519
2.0713e-16 -0.92388 3.38268
2.39192 -0.92388 2.39192
1.2945 -0.92388 3.12519
2.12132 -1 2.12132
1.14805 -1 2.77164
1.2945 -0.92388 3.12519
2.0713e-16 -0.92388 3.38268
1.14805 -1 2.77164
0 -1 3
3 1 0
2.77164 1 1.14805
3.38268 0.92388 0
3.12519 0.92388 1.2945
2.77164 1 1.14805
2.12132 1 2.12132
3.12519 0.92388 1.2945
2.39192 0.92388 2.39192
3.38268 0.92388 0
3.12519 0.92388 1.2945
3.70711 0.707107 0
3.42492 0.707107 1.41865
3.12519 0.92388 1.2945
2.39192 0.92388 2.39192
3.42492 0.707107 1.41865
2.62132 0.707107 2.62132
2.12132 1 2.12132
1.14805 1 2.77164
2.39192 0.92388 2.39192
1.2945 0.92388 3.12519
1.14805 1 2.77164
0 1 3
1.2945 0.92388 3.12519
2.0713e-16 0.92388 3.38268
2.39192 0.92388 2.39192
1.2945 0.92388 3.12519
2.62132 0.707107 2.62132
1.41865 0.707107 3.42492
1.2945 0.92388 3.12519
2.0713e-16 0.92388 3.38268
1.41865 0.707107 3.42492
2.26995e-16 0.707107 3.70711
3.70711 0.707107 0
3.42492 0.707107 1.41865
3.92388 0.382683 0
3.62519 0.382683 1.5016
3.42492 0.707107 1.41865
2.62132 0.707107 2.62132
3.62519 0.382683 1.5016
2.7746 0.382683 2.7746
3.92388 0.382683 0
3.62519 0.382683 1.5016
4 0 0
3.69552 0 1.53073
3.62519 0.382683 1.5016
2.7746 0.382683 2.7746
3.69552 0 1.53073
2.82843 0 2.82843
2.62132 0.707107 2.62132
1.41865 0.707107 3.42492
2.7746 0.382683 2.7746
1.5016 0.382683 3.62519
1.41865 0.707107 3.42492
2.26995e-16 0.707107 3.70711
1.5016 0.382683 3.62519
2.40268e-16 0.382683 3.92388
2.7746 0.382683 2.7746
1.5016 0.382683 3.62519
2.82843 0 2.82843
1.53073 0 3.69552
1.5016 0.382683 3.62519
2.40268e-16 0.382683 3.92388
1.53073 0 3.69552
0 0 4
0 0 2
-0.765367 1.22465e-16 1.84776
1.27126e-16 0.382683 2.07612
-0.794497 0.382683 1.91809
-0.765367 1.22465e-16 1.84776
-1.41421 1.22465e-16 1.41421
-0.794497 0.382683 1.91809
-1.46804 0.382683 1.46804
1.27126e-16 0.382683 2.07612
-0.794497 0.382683 1.91809
1.40399e-16 0.707107 2.29289
-0.877452 0.707107 2.11836
-0.794497 0.382683 1.91809
-1.46804 0.382683 1.46804
-0.877452 0.707107 2.11836
-1.62132 0.707107 1.62132
-1.41421 1.22465e-16 1.41421
-1.84776 1.22465e-16 0.765367
-1.46804 0.382683 1.46804
-1.91809 0.382683 0.794497
-1.84776 1.22465e-16 0.765367
-2 0 0
-1.91809 0.382683 0.794497
-2.07612 0.382683 2.54251e-16
-1.46804 0.382683 1.46804
-1.91809 0.382683 0.794497
-1.62132 0.707107 1.62132
-2.11836 0.707107 0.877452
-1.91809 0.382683 0.794497
-2.07612 0.382683 2.54251e-16
-2.11836 0.707107 0.877452
-2.29289 0.707107 2.80798e-16
1.40399e-16 0.707107 2.29289
-0.877452 0.707107 2.11836
1.60264e-16 0.92388 2.61732
-1.0016 0.92388 2.41809
-0.877452 0.707107 2.11836
-1.62132 0.707107 1.62132
-1.0016 0.92388 2.41809
-1.85072 0.92388 1.85072
1.60264e-16 0.92388 2.61732
-1.0016 0.92388 2.41809
0 1 3
-1.14805 1 2.77164
-1.0016 0.92388 2.41809
-1.85072 0.92388 1.85072
-1.14805 1 2.77164
-2.12132 1 2.12132
-1.62132 0.707107 1.62132
-2.11836 0.707107 0.877452
-1.85072 0.92388 1.85072
-2.41809 0.92388 1.0016
-2.11836 0.707107 0.877452
-2.29289 0.707107 2.80798e-16
-2.41809 0.92388 1.0016
-2.61732 0.92388 3.20529e-16
-1.85072 0.92388 1.85072
-2.41809 0.92388 1.0016
-2.12132 1 2.12132
-2.77164 1 1.14805
-2.41809 0.92388 1.0016
-2.61732 0.92388 3.20529e-16
-2.77164 1 1.14805
-3 1 0
0 -1 3
-1.14805 -1 2.77164
1.60264e-16 -0.92388 2.61732
-1.0016 -0.92388 2.41809
-1.14805 -1 2.77164
-2.12132 -1 2.12132
-1.0016 -0.92388 2.41809
-1.85072 -0.92388 1.85072
1.60264e-16 -0.92388 2.61732
-1.0016 -0.92388 2.41809
1.40399e-16 -0.707107 2.29289
-0.877452 -0.707107 2.11836
-1.0016 -0.92388 2.41809
-1.85072 -0.92388 1.85072
-0.877452 -0.707107 2.11836
-1.62132 -0.707107 1.62132
-2.12132 -1 2.12132
-2.77164 -1 1.14805
-1.85072 -0.92388 1.85072
-2.41809 -0.92388 1.0016
-2.77164 -1 1.14805
-3 -1 0
-2.41809 -0.92388 1.0016
-2.61732 -0.92388 3.20529e-16
-1.85072 -0.92388 1.85072
-2.41809 -0.92388 1.0016
-1.62132 -0.707107 1.62132
-2.11836 -0.707107 0.877452
-2.41809 -0.92388 1.0016
-2.61732 -0.92388 3.20529e-16
-2.11836 -0.707107 0.877452
-2.29289 -0.707107 2.80798e-16
1.40399e-16 -0.707107 2.29289
-0.877452 -0.707107 2.11836
1.27126e-16 -0.382683 2.07612
-0.794497 -0.382683 1.91809
-0.877452 -0.707107 2.11836
-1.62132 -0.707107 1.62132
-0.794497 -0.382683 1.91809
-1.46804 -0.382683 1.46804
1.27126e-16 -0.382683 2.07612
-0.794497 -0.382683 1.91809
0 0 2
-0.765367 1.22465e-16 1.84776
-0.794497 -0.382683 1.91809
-1.46804 -0.382683 1.46804
-0.765367 1.22465e-16 1.84776
-1.41421 1.22465e-16 1.41421
-1.62132 -0.707107 1.62132
-2.11836 -0.707107 0.877452
-1.46804 -0.382683 1.46804
-1.91809 -0.382683 0.794497
-2.11836 -0.707107 0.877452
-2.29289 -0.707107 2.80798e-16
-1.91809 -0.382683 0.794497
-2.07612 -0.382683 2.54251e-16
-1.46804 -0.382683 1.46804
-1.91809 -0.382683 0.794497
-1.41421 1.22465e-16 1.41421
-1.84776 1.22465e-16 0.765367
-1.91809 -0.382683 0.794497
-2.07612 -0.382683 2.54251e-16
-1.84776 1.22465e-16 0.765367
-2 0 0
0 0 4
-1.53073 0 3.69552
2.40268e-16 -0.382683 3.92388
-1.5016 -0.382683 3.62519
-1.53073 0 3.69552
-2.82843 0 2.82843
-1.5016 -0.382683 3.62519
-2.7746 -0.382683 2.7746
2.40268e-16 -0.382683 3.92388
-1.5016 -0.382683 3.62519
2.26995e-16 -0.707107 3.70711
-1.41865 -0.707107 3.42492
-1.5016 -0.382683 3.62519
-2.7746 -0.382683 2.7746
-1.41865 -0.707107 3.42492
-2.62132 -0.707107 2.62132
-2.82843 0 2.82843
-3.69552 0 1.53073
-2.7746 -0.382683 2.7746
-3.62519 -0.382683 1.5016
-3.69552 0 1.53073
-4 0 0
-3.62519 -0.382683 1.5016
-3.92388 -0.382683 4.80537e-16
-2.7746 -0.382683 2.7746
-3.62519 -0.382683 1.5016
-2.62132 -0.707107 2.62132
-3.42492 -0.707107 1.41865
[...]
POINT_DATA 1024
SCALARS U double 1
LOOKUP_TABLE default
0.0734358 0.0736537 0.102072 0.10237 0.0736537 0.0715533 0.10237 0.100377 0.102072 0.10237 0.130308 0.130647 0.10237 0.100377 0.130647 0.129391 0.0715533 0.056174 0.100377 0.0828653 0.056174 0.0258579 0.0828653 0.0434009 0.100377 0.0828653 0.129391 0.111862 0.0828653 0.0434009 0.111862 0.0640546 0.130308 0.130647 0.147143 0.147422 0.130647 0.129391 0.147422 0.147179 0.147143 0.147422 0.151188 0.151314 0.147422 0.147179 0.151314 0.151971 0.129391 0.111862 0.147179 0.130948 0.111862 0.0640546 0.130948 0.0771264 0.147179 0.130948 0.151971 0.137617 0.130948 0.0771264 0.137617 0.0799998 0.0141153 0.0141466 0.0174187 0.0174845 0.0141466 0.0141438 0.0174845 0.0170985 0.0174187 0.0174845 0.0301623 0.0302626 0.0174845 0.0170985 0.0302626 0.0293478 0.0141438 0.0112016 0.0170985 0.0130174 0.0112016 0.00295019 0.0130174 0.00456469 0.0170985 0.0130174 0.0293478 0.0222443 0.0130174 0.00456469 0.0222443 0.00864934 0.0301623 0.0302626 0.0496391 0.0497893 0.0302626 0.0293478 0.0497893 0.0481902 0.0496391 0.0497893 0.0734358 0.0736537 0.0497893 0.0481902 0.0736537 0.0715533 0.0293478 0.0222443 0.0481902 0.0367907 0.0222443 0.00864934 0.0367907 0.0153055 0.0481902 0.0367907 0.0715533 0.056174 0.0367907 0.0153055 0.056174 0.0258579 0.0740414 0.073755 0.053104 0.0528802 0.073755 0.0752231 0.0528802 0.0540554 0.053104 0.0528802 0.034675 0.0345507 0.0528802 0.0540554 0.0345507 0.0353332 0.0752231 0.0678706 0.0540554 0.0481103 0.0678706 0.0159905 0.0481103 0.00813064 0.0540554 0.0481103 0.0353332 0.0308043 0.0481103 0.00813064 0.0308043 0.00489518 0.034675 0.0345507 0.0205069 0.0204768 0.0345507 0.0353332 0.0204768 0.0208478 0.0205069 0.0204768 0.0141153 0.0141466 0.0204768 0.0208478 0.0141466 0.0141438 0.0353332 0.0308043 0.0208478 0.0175157 0.0308043 0.00489518 0.0175157 0.00324371 0.0208478 0.0175157 0.0141438 0.0112016 0.0175157 0.00324371 0.0112016 0.00295019 0.151188 0.151314 0.144879 0.144827 0.151314 0.151971 0.144827 0.146084 0.144879 0.144827 0.126512 0.126313 0.144827 0.146084 0.126313 0.127869 0.151971 0.137617 0.146084 0.133732 0.137617 0.0799998 0.133732 0.0739026 0.146084 0.133732 0.127869 0.11738 0.133732 0.0739026 0.11738 0.0568542 0.126512 0.126313 0.099476 0.0991948 0.126313 0.127869 0.0991948 0.100803 0.099476 0.0991948 0.0740414 0.073755 0.0991948 0.100803 0.073755 0.0752231 0.127869 0.11738 0.100803 0.0919749 0.11738 0.0568542 0.0919749 0.033384 0.100803 0.0919749 0.0752231 0.0678706 0.0919749 0.033384 0.0678706 0.0159905 0.0258579 0.00484841 0.0434009 0.00775502 0.00484841 -3.43609e-05 0.00775502 -0.000283522 0.0434009 0.00775502 0.0640546 0.0095933 0.00775502 -0.000283522 0.0095933 -0.000745651 -3.43609e-05 -6.56887e-05 -0.000283522 -5.40458e-05 -6.56887e-05 1.05576e-05 -5.40458e-05 1.06556e-05 -0.000283522 -5.40458e-05 -0.000745651 2.04067e-05 -5.40458e-05 1.06556e-05 2.04067e-05 -4.66957e-06 0.0640546 0.0095933 0.0771264 0.00887622 0.0095933 -0.000745651 0.00887622 -0.00102816 0.0771264 0.00887622 0.0799998 0.00633779 0.00887622 -0.00102816 0.00633779 -0.000976241 -0.000745651 2.04067e-05 -0.00102816 0.000101127 2.04067e-05 -4.66957e-06 0.000101127 -2.70608e-05 -0.00102816 0.000101127 -0.000976241 0.000139896 0.000101127 -2.70608e-05 0.000139896 -4.27742e-05 0.00295019 -1.3571e-05 0.00456469 0.000389137 -1.3571e-05 -2.34133e-05 0.000389137 -5.75633e-05 0.00456469 0.000389137 0.00864934 0.00114165 0.000389137 -5.75633e-05 0.00114165 -6.99755e-05 -2.34133e-05 3.85092e-06 -5.75633e-05 -4.72179e-07 3.85092e-06 -1.18241e-06 -4.72179e-07 1.62852e-06 -5.75633e-05 -4.72179e-07 -6.99755e-05 -1.25419e-05 -4.72179e-07 1.62852e-06 -1.25419e-05 3.9995e-06 0.00864934 0.00114165 0.0153055 0.00255185 0.00114165 -6.99755e-05 0.00255185 -3.80366e-05 0.0153055 0.00255185 0.0258579 0.00484841 0.00255185 -3.80366e-05 0.00484841 -3.43609e-05 -6.99755e-05 -1.25419e-05 -3.80366e-05 -3.72781e-05 -1.25419e-05 3.9995e-06 -3.72781e-05 6.43813e-06 -3.80366e-05 -3.72781e-05 -3.43609e-05 -6.56887e-05 -3.72781e-05 6.43813e-06 -6.56887e-05 1.05576e-05 0.0159905 -0.000348906 0.00813064 -0.000582227 -0.000348906 1.81263e-05 -0.000582227 8.06101e-05 0.00813064 -0.000582227 0.00489518 -0.00054206 -0.000582227 8.06101e-05 -0.00054206 7.1516e-05 1.81263e-05 5.11354e-06 8.06101e-05 -7.49446e-06 5.11354e-06 -3.72741e-06 -7.49446e-06 -7.4781e-08 8.06101e-05 -7.49446e-06 7.1516e-05 -5.22334e-06 -7.49446e-06 -7.4781e-08 -5.22334e-06 -1.29361e-06 0.00489518 -0.00054206 0.00324371 -0.000311237 -0.00054206 7.1516e-05 -0.000311237 2.41154e-05 0.00324371 -0.000311237 0.00295019 -1.3571e-05 -0.000311237 2.41154e-05 -1.3571e-05 -2.34133e-05 7.1516e-05 -5.22334e-06 2.41154e-05 1.52356e-06 -5.22334e-06 -1.29361e-06 1.52356e-06 -2.51833e-06 2.41154e-05 1.52356e-06 -2.34133e-05 3.85092e-06 1.52356e-06 -2.51833e-06 3.85092e-06 -1.18241e-06 0.0799998 0.00633779 0.0739026 0.00344357 0.00633779 -0.000976241 0.00344357 -0.000696335 0.0739026 0.00344357 0.0568542 0.00126593 0.00344357 -0.000696335 0.00126593 -0.000363324 -0.000976241 0.000139896 -0.000696335 0.000129903 0.000139896 -4.27742e-05 0.000129903 -4.5788e-05 -0.000696335 0.000129903 -0.000363324 8.49893e-05 0.000129903 -4.5788e-05 8.49893e-05 -3.35542e-05 0.0568542 0.00126593 0.033384 0.000155936 0.00126593 -0.000363324 0.000155936 -0.000121863 0.033384 0.000155936 0.0159905 -0.000348906 0.000155936 -0.000121863 -0.000348906 1.81263e-05 -0.000363324 8.49893e-05 -0.000121863 3.68152e-05 8.49893e-05 -3.35542e-05 3.68152e-05 -1.56638e-05 -0.000121863 3.68152e-05 1.81263e-05 5.11354e-06 3.68152e-05 -1.56638e-05 5.11354e-06 -3.72741e-06 1.05576e-05 -6.56921e-05 1.06556e-05 -5.40478e-05 -6.56921e-05 -3.4365e-05 -5.40478e-05 -0.000283537 1.06556e-05 -5.40478e-05 -4.66957e-06 2.0402e-05 -5.40478e-05 -0.000283537 2.0402e-05 -0.000745666 -3.4365e-05 0.00484841 -0.000283537 0.00775502 0.00484841 0.0258579 0.00775502 0.0434009 -0.000283537 0.00775502 -0.000745666 0.00959329 0.00775502 0.0434009 0.00959329 0.0640546 -4.66957e-06 2.0402e-05 -2.70608e-05 0.000101128 2.0402e-05 -0.000745666 0.000101128 -0.00102816 -2.70608e-05 0.000101128 -4.27742e-05 0.0001399 0.000101128 -0.00102816 0.0001399 -0.000976236 -0.000745666 0.00959329 -0.00102816 0.00887621 0.00959329 0.0640546 0.00887621 0.0771264 -0.00102816 0.00887621 -0.000976236 0.00633779 0.00887621 0.0771264 0.00633779 0.0799998 -1.18241e-06 3.85205e-06 1.62852e-06 -4.69693e-07 3.85205e-06 -2.34109e-05 -4.69693e-07 -5.75648e-05 1.62852e-06 -4.69693e-07 3.9995e-06 -1.25431e-05 -4.69693e-07 -5.75648e-05 -1.25431e-05 -6.99701e-05 -2.34109e-05 -1.35672e-05 -5.75648e-05 0.000389149 -1.35672e-05 0.00295019 0.000389149 0.0045647 -5.75648e-05 0.000389149 -6.99701e-05 0.00114166 0.000389149 0.0045647 0.00114166 0.00864934 3.9995e-06 -1.25431e-05 6.43813e-06 -3.72733e-05 -1.25431e-05 -6.99701e-05 -3.72733e-05 -3.80402e-05 6.43813e-06 -3.72733e-05 1.05576e-05 -6.56921e-05 -3.72733e-05 -3.80402e-05 -6.56921e-05 -3.4365e-05 -6.99701e-05 0.00114166 -3.80402e-05 0.00255185 0.00114166 0.00864934 0.00255185 0.0153055 -3.80402e-05 0.00255185 -3.4365e-05 0.00484841 0.00255185 0.0153055 0.00484841 0.0258579 -3.72741e-06 5.11136e-06 -7.4781e-08 -7.49039e-06 5.11136e-06 1.81296e-05 -7.49039e-06 8.06084e-05 -7.4781e-08 -7.49039e-06 -1.29361e-06 -5.22444e-06 -7.49039e-06 8.06084e-05 -5.22444e-06 7.152e-05 1.81296e-05 -0.000348911 8.06084e-05 -0.000582231 -0.000348911 0.0159905 -0.000582231 0.00813064 8.06084e-05 -0.000582231 7.152e-05 -0.000542066 -0.000582231 0.00813064 -0.000542066 0.00489519 -1.29361e-06 -5.22444e-06 -2.51833e-06 1.52344e-06 -5.22444e-06 7.152e-05 1.52344e-06 2.41181e-05 -2.51833e-06 1.52344e-06 -1.18241e-06 3.85205e-06 1.52344e-06 2.41181e-05 3.85205e-06 -2.34109e-05 7.152e-05 -0.000542066 2.41181e-05 -0.00031124 -0.000542066 0.00489519 -0.00031124 0.00324371 2.41181e-05 -0.00031124 -2.34109e-05 -1.35672e-05 -0.00031124 0.00324371 -1.35672e-05 0.00295019 -4.27742e-05 0.0001399 -4.5788e-05 0.000129908 0.0001399 -0.000976236 0.000129908 -0.000696327 -4.5788e-05 0.000129908 -3.35542e-05 8.49898e-05 0.000129908 -0.000696327 8.49898e-05 -0.000363307 -0.000976236 0.00633779 -0.000696327 0.00344357 0.00633779 0.0799998 0.00344357 0.0739026 -0.000696327 0.00344357 -0.000363307 0.00126593 0.00344357 0.0739026 0.00126593 0.0568542 -3.35542e-05 8.49898e-05 -1.56638e-05 3.68175e-05 8.49898e-05 -0.000363307 3.68175e-05 -0.000121859 -1.56638e-05 3.68175e-05 -3.72741e-06 5.11136e-06 3.68175e-05 -0.000121859 5.11136e-06 1.81296e-05 -0.000363307 0.00126593 -0.000121859 0.000155933 0.00126593 0.0568542 0.000155933 0.033384 -0.000121859 0.000155933 1.81296e-05 -0.000348911 0.000155933 0.033384 -0.000348911 0.0159905 0.0258579 0.056174 0.0434009 0.0828653 0.056174 0.0715533 0.0828653 0.100377 0.0434009 0.0828653 0.0640546 0.111862 0.0828653 0.100377 0.111862 0.129391 0.0715533 0.0736536 0.100377 0.10237 0.0736536 0.0734358 0.10237 0.102072 0.100377 0.10237 0.129391 0.130647 0.10237 0.102072 0.130647 0.130308 0.0640546 0.111862 0.0771264 0.130948 0.111862 0.129391 0.130948 0.147179 0.0771264 0.130948 0.0799998 0.137617 0.130948 0.147179 0.137617 0.151971 0.129391 0.130647 0.147179 0.147422 0.130647 0.130308 0.147422 0.147143 0.147179 0.147422 0.151971 0.151314 0.147422 0.147143 0.151314 0.151188 0.00295019 0.0112016 0.0045647 0.0130174 0.0112016 0.0141438 0.0130174 0.0170985 0.0045647 0.0130174 0.00864934 0.0222442 0.0130174 0.0170985 0.0222442 0.0293478 0.0141438 0.0141466 0.0170985 0.0174845 0.0141466 0.0141153 0.0174845 0.0174187 0.0170985 0.0174845 0.0293478 0.0302626 0.0174845 0.0174187 0.0302626 0.0301623 0.00864934 0.0222442 0.0153055 0.0367907 0.0222442 0.0293478 0.0367907 0.0481902 0.0153055 0.0367907 0.0258579 0.056174 0.0367907 0.0481902 0.056174 0.0715533 0.0293478 0.0302626 0.0481902 0.0497893 0.0302626 0.0301623 0.0497893 0.0496391 0.0481902 0.0497893 0.0715533 0.0736536 0.0497893 0.0496391 0.0736536 0.0734358 0.0159905 0.0678707 0.00813064 0.0481103 0.0678707 0.0752231 0.0481103 0.0540554 0.00813064 0.0481103 0.00489519 0.0308043 0.0481103 0.0540554 0.0308043 0.0353332 0.0752231 0.073755 0.0540554 0.0528802 0.073755 0.0740414 0.0528802 0.053104 0.0540554 0.0528802 0.0353332 0.0345506 0.0528802 0.053104 0.0345506 0.034675 0.00489519 0.0308043 0.00324371 0.0175157 0.0308043 0.0353332 0.0175157 0.0208478 0.00324371 0.0175157 0.00295019 0.0112016 0.0175157 0.0208478 0.0112016 0.0141438 0.0353332 0.0345506 0.0208478 0.0204768 0.0345506 0.034675 0.0204768 0.0205069 0.0208478 0.0204768 0.0141438 0.0141466 0.0204768 0.0205069 0.0141466 0.0141153 0.0799998 0.137617 0.0739026 0.133732 0.137617 0.151971 0.133732 0.146084 0.0739026 0.133732 0.0568542 0.11738 0.133732 0.146084 0.11738 0.127869 0.151971 0.151314 0.146084 0.144827 0.151314 0.151188 0.144827 0.144879 0.146084 0.144827 0.127869 0.126313 0.144827 0.144879 0.126313 0.126512 0.0568542 0.11738 0.033384 0.0919749 0.11738 0.127869 0.0919749 0.100803 0.033384 0.0919749 0.0159905 0.0678707 0.0919749 0.100803 0.0678707 0.0752231 0.127869 0.126313 0.100803 0.0991948 0.126313 0.126512 0.0991948 0.099476 0.100803 0.0991948 0.0752231 0.073755 0.0991948 0.099476 0.073755 0.0740414 
