# vtk DataFile Version 3.0
#This file was generated by the deal.II library on 2023/3/8 at 18:39:25
ASCII
DATASET UNSTRUCTURED_GRID

FIELD FieldData 2
CYCLE 1 1 int
188
TIME 1 1 double
0.376
POINTS 1024 double
2 0 0
1.84776 1.22465e-16 0.765367
2.07612 0.382683 0
1.91809 0.382683 0.794497
1.84776 1.22465e-16 0.765367
1.41421 1.22465e-16 1.41421
1.91809 0.382683 0.794497
1.46804 0.382683 1.46804
2.07612 0.382683 0
1.91809 0.382683 0.794497
2.29289 0.707107 0
2.11836 0.707107 0.877452
1.91809 0.382683 0.794497
1.46804 0.382683 1.46804
2.11836 0.707107 0.877452
1.62132 0.707107 1.62132
1.41421 1.22465e-16 1.41421
0.765367 1.22465e-16 1.84776
1.46804 0.382683 1.46804
0.794497 0.382683 1.91809
0.765367 1.22465e-16 1.84776
0 0 2
0.794497 0.382683 1.91809
1.27126e-16 0.382683 2.07612
1.46804 0.382683 1.46804
0.794497 0.382683 1.91809
1.62132 0.707107 1.62132
0.877452 0.707107 2.11836
0.794497 0.382683 1.91809
1.27126e-16 0.382683 2.07612
0.877452 0.707107 2.11836
1.40399e-16 0.707107 2.29289
2.29289 0.707107 0
2.11836 0.707107 0.877452
2.61732 0.92388 0
2.41809 0.92388 1.0016
2.11836 0.707107 0.877452
1.62132 0.707107 1.62132
2.41809 0.92388 1.0016
1.85072 0.92388 1.85072
2.61732 0.92388 0
2.41809 0.92388 1.0016
3 1 0
2.77164 1 1.14805
2.41809 0.92388 1.0016
1.85072 0.92388 1.85072
2.77164 1 1.14805
2.12132 1 2.12132
1.62132 0.707107 1.62132
0.877452 0.707107 2.11836
1.85072 0.92388 1.85072
1.0016 0.92388 2.41809
0.877452 0.707107 2.11836
1.40399e-16 0.707107 2.29289
1.0016 0.92388 2.41809
1.60264e-16 0.92388 2.61732
1.85072 0.92388 1.85072
1.0016 0.92388 2.41809
2.12132 1 2.12132
1.14805 1 2.77164
1.0016 0.92388 2.41809
1.60264e-16 0.92388 2.61732
1.14805 1 2.77164
0 1 3
3 -1 0
2.77164 -1 1.14805
2.61732 -0.92388 0
2.41809 -0.92388 1.0016
2.77164 -1 1.14805
2.12132 -1 2.12132
2.41809 -0.92388 1.0016
1.85072 -0.92388 1.85072
2.61732 -0.92388 0
2.41809 -0.92388 1.0016
2.29289 -0.707107 0
2.11836 -0.707107 0.877452
2.41809 -0.92388 1.0016
1.85072 -0.92388 1.85072
2.11836 -0.707107 0.877452
1.62132 -0.707107 1.62132
2.12132 -1 2.12132
1.14805 -1 2.77164
1.85072 -0.92388 1.85072
1.0016 -0.92388 2.41809
1.14805 -1 2.77164
0 -1 3
1.0016 -0.92388 2.41809
1.60264e-16 -0.92388 2.61732
1.85072 -0.92388 1.85072
1.0016 -0.92388 2.41809
1.62132 -0.707107 1.62132
0.877452 -0.707107 2.11836
1.0016 -0.92388 2.41809
1.60264e-16 -0.92388 2.61732
0.877452 -0.707107 2.11836
1.40399e-16 -0.707107 2.29289
2.29289 -0.707107 0
2.11836 -0.707107 0.877452
2.07612 -0.382683 0
1.91809 -0.382683 0.794497
2.11836 -0.707107 0.877452
1.62132 -0.707107 1.62132
1.91809 -0.382683 0.794497
1.46804 -0.382683 1.46804
2.07612 -0.382683 0
1.91809 -0.382683 0.794497
2 0 0
1.84776 1.22465e-16 0.765367
1.91809 -0.382683 0.794497
1.46804 -0.382683 1.46804
1.84776 1.22465e-16 0.765367
1.41421 1.22465e-16 1.41421
1.62132 -0.707107 1.62132
0.877452 -0.707107 2.11836
1.46804 -0.382683 1.46804
0.794497 -0.382683 1.91809
0.877452 -0.707107 2.11836
1.40399e-16 -0.707107 2.29289
0.794497 -0.382683 1.91809
1.27126e-16 -0.382683 2.07612
1.46804 -0.382683 1.46804
0.794497 -0.382683 1.91809
1.41421 1.22465e-16 1.41421
0.765367 1.22465e-16 1.84776
0.794497 -0.382683 1.91809
1.27126e-16 -0.382683 2.07612
0.765367 1.22465e-16 1.84776
0 0 2
4 0 0
3.69552 0 1.53073
3.92388 -0.382683 0
3.62519 -0.382683 1.5016
3.69552 0 1.53073
2.82843 0 2.82843
3.62519 -0.382683 1.5016
2.7746 -0.382683 2.7746
3.92388 -0.382683 0
3.62519 -0.382683 1.5016
3.70711 -0.707107 0
3.42492 -0.707107 1.41865
3.62519 -0.382683 1.5016
2.7746 -0.382683 2.7746
3.42492 -0.707107 1.41865
2.62132 -0.707107 2.62132
2.82843 0 2.82843
1.53073 0 3.69552
2.7746 -0.382683 2.7746
1.5016 -0.382683 3.62519
1.53073 0 3.69552
0 0 4
1.5016 -0.382683 3.62519
2.40268e-16 -0.382683 3.92388
2.7746 -0.382683 2.7746
1.5016 -0.382683 3.62519
2.62132 -0.707107 2.62132
1.41865 -0.707107 3.42492
1.5016 -0.382683 3.62519
2.40268e-16 -0.382683 3.92388
1.41865 -0.707107 3.42492
2.26995e-16 -0.707107 3.70711
3.70711 -0.707107 0
3.42492 -0.707107 1.41865
3.38268 -0.92388 0
3.12519 -0.92388 1.2945
3.42492 -0.707107 1.41865
2.62132 -0.707107 2.62132
3.12519 -0.92388 1.2945
2.39192 -0.92388 2.39192
3.38268 -0.92388 0
3.12519 -0.92388 1.2945
3 -1 0
2.77164 -1 1.14805
3.12519 -0.92388 1.2945
2.39192 -0.92388 2.39192
2.77164 -1 1.14805
2.12132 -1 2.12132
2.62132 -0.707107 2.62132
1.41865 -0.707107 3.42492
2.39192 -0.92388 2.39192
1.2945 -0.92388 3.12519
1.41865 -0.707107 3.42492
2.26995e-16 -0.707107 3.70711
1.2945 -0.92388 3.12519
2.0713e-16 -0.92388 3.38268
2.39192 -0.92388 2.39192
1.2945 -0.92388 3.12519
2.12132 -1 2.12132
1.14805 -1 2.77164
1.2945 -0.92388 3.12519
2.0713e-16 -0.92388 3.38268
1.14805 -1 2.77164
0 -1 3
3 1 0
2.77164 1 1.14805
3.38268 0.92388 0
3.12519 0.92388 1.2945
2.77164 1 1.14805
2.12132 1 2.12132
3.12519 0.92388 1.2945
2.39192 0.92388 2.39192
3.38268 0.92388 0
3.12519 0.92388 1.2945
3.70711 0.707107 0
3.42492 0.707107 1.41865
3.12519 0.92388 1.2945
2.39192 0.92388 2.39192
3.42492 0.707107 1.41865
2.62132 0.707107 2.62132
2.12132 1 2.12132
1.14805 1 2.77164
2.39192 0.92388 2.39192
1.2945 0.92388 3.12519
1.14805 1 2.77164
0 1 3
1.2945 0.92388 3.12519
2.0713e-16 0.92388 3.38268
2.39192 0.92388 2.39192
1.2945 0.92388 3.12519
2.62132 0.707107 2.62132
1.41865 0.707107 3.42492
1.2945 0.92388 3.12519
2.0713e-16 0.92388 3.38268
1.41865 0.707107 3.42492
2.26995e-16 0.707107 3.70711
3.70711 0.707107 0
3.42492 0.707107 1.41865
3.92388 0.382683 0
3.62519 0.382683 1.5016
3.42492 0.707107 1.41865
2.62132 0.707107 2.62132
3.62519 0.382683 1.5016
2.7746 0.382683 2.7746
3.92388 0.382683 0
3.62519 0.382683 1.5016
4 0 0
3.69552 0 1.53073
3.62519 0.382683 1.5016
2.7746 0.382683 2.7746
3.69552 0 1.53073
2.82843 0 2.82843
2.62132 0.707107 2.62132
1.41865 0.707107 3.42492
2.7746 0.382683 2.7746
1.5016 0.382683 3.62519
1.41865 0.707107 3.42492
2.26995e-16 0.707107 3.70711
1.5016 0.382683 3.62519
2.40268e-16 0.382683 3.92388
2.7746 0.382683 2.7746
1.5016 0.382683 3.62519
2.82843 0 2.82843
1.53073 0 3.69552
1.5016 0.382683 3.62519
2.40268e-16 0.382683 3.92388
1.53073 0 3.69552
0 0 4
0 0 2
-0.765367 1.22465e-16 1.84776
1.27126e-16 0.382683 2.07612
-0.794497 0.382683 1.91809
-0.765367 1.22465e-16 1.84776
-1.41421 1.22465e-16 1.41421
-0.794497 0.382683 1.91809
-1.46804 0.382683 1.46804
1.27126e-16 0.382683 2.07612
-0.794497 0.382683 1.91809
1.40399e-16 0.707107 2.29289
-0.877452 0.707107 2.11836
-0.794497 0.382683 1.91809
-1.46804 0.382683 1.46804
-0.877452 0.707107 2.11836
-1.62132 0.707107 1.62132
-1.41421 1.22465e-16 1.41421
-1.84776 1.22465e-16 0.765367
-1.46804 0.382683 1.46804
-1.91809 0.382683 0.794497
-1.84776 1.22465e-16 0.765367
-2 0 0
-1.91809 0.382683 0.794497
-2.07612 0.382683 2.54251e-16
-1.46804 0.382683 1.46804
-1.91809 0.382683 0.794497
-1.62132 0.707107 1.62132
-2.11836 0.707107 0.877452
-1.91809 0.382683 0.794497
-2.07612 0.382683 2.54251e-16
-2.11836 0.707107 0.877452
-2.29289 0.707107 2.80798e-16
1.40399e-16 0.707107 2.29289
-0.877452 0.707107 2.11836
1.60264e-16 0.92388 2.61732
-1.0016 0.92388 2.41809
-0.877452 0.707107 2.11836
-1.62132 0.707107 1.62132
-1.0016 0.92388 2.41809
-1.85072 0.92388 1.85072
1.60264e-16 0.92388 2.61732
-1.0016 0.92388 2.41809
0 1 3
-1.14805 1 2.77164
-1.0016 0.92388 2.41809
-1.85072 0.92388 1.85072
-1.14805 1 2.77164
-2.12132 1 2.12132
-1.62132 0.707107 1.62132
-2.11836 0.707107 0.877452
-1.85072 0.92388 1.85072
-2.41809 0.92388 1.0016
-2.11836 0.707107 0.877452
-2.29289 0.707107 2.80798e-16
-2.41809 0.92388 1.0016
-2.61732 0.92388 3.20529e-16
-1.85072 0.92388 1.85072
-2.41809 0.92388 1.0016
-2.12132 1 2.12132
-2.77164 1 1.14805
-2.41809 0.92388 1.0016
-2.61732 0.92388 3.20529e-16
-2.77164 1 1.14805
-3 1 0
0 -1 3
-1.14805 -1 2.77164
1.60264e-16 -0.92388 2.61732
-1.0016 -0.92388 2.41809
-1.14805 -1 2.77164
-2.12132 -1 2.12132
-1.0016 -0.92388 2.41809
-1.85072 -0.92388 1.85072
1.60264e-16 -0.92388 2.61732
-1.0016 -0.92388 2.41809
1.40399e-16 -0.707107 2.29289
-0.877452 -0.707107 2.11836
-1.0016 -0.92388 2.41809
-1.85072 -0.92388 1.85072
-0.877452 -0.707107 2.11836
-1.62132 -0.707107 1.62132
-2.12132 -1 2.12132
-2.77164 -1 1.14805
-1.85072 -0.92388 1.85072
-2.41809 -0.92388 1.0016
-2.77164 -1 1.14805
-3 -1 0
-2.41809 -0.92388 1.0016
-2.61732 -0.92388 3.20529e-16
-1.85072 -0.92388 1.85072
-2.41809 -0.92388 1.0016
-1.62132 -0.707107 1.62132
-2.11836 -0.707107 0.877452
-2.41809 -0.92388 1.0016
-2.61732 -0.92388 3.20529e-16
-2.11836 -0.707107 0.877452
-2.29289 -0.707107 2.80798e-16
1.40399e-16 -0.707107 2.29289
-0.877452 -0.707107 2.11836
1.27126e-16 -0.382683 2.07612
-0.794497 -0.382683 1.91809
-0.877452 -0.707107 2.11836
-1.62132 -0.707107 1.62132
-0.794497 -0.382683 1.91809
-1.46804 -0.382683 1.46804
1.27126e-16 -0.382683 2.07612
-0.794497 -0.382683 1.91809
0 0 2
-0.765367 1.22465e-16 1.84776
-0.794497 -0.382683 1.91809
-1.46804 -0.382683 1.46804
-0.765367 1.22465e-16 1.84776
-1.41421 1.22465e-16 1.41421
-1.62132 -0.707107 1.62132
-2.11836 -0.707107 0.877452
-1.46804 -0.382683 1.46804
-1.91809 -0.382683 0.794497
-2.11836 -0.707107 0.877452
-2.29289 -0.707107 2.80798e-16
-1.91809 -0.382683 0.794497
-2.07612 -0.382683 2.54251e-16
-1.46804 -0.382683 1.46804
-1.91809 -0.382683 0.794497
-1.41421 1.22465e-16 1.41421
-1.84776 1.22465e-16 0.765367
-1.91809 -0.382683 0.794497
-2.07612 -0.382683 2.54251e-16
-1.84776 1.22465e-16 0.765367
-2 0 0
0 0 4
-1.53073 0 3.69552
2.40268e-16 -0.382683 3.92388
-1.5016 -0.382683 3.62519
-1.53073 0 3.69552
-2.82843 0 2.82843
-1.5016 -0.382683 3.62519
-2.7746 -0.382683 2.7746
2.40268e-16 -0.382683 3.92388
-1.5016 -0.382683 3.62519
2.26995e-16 -0.707107 3.70711
-1.41865 -0.707107 3.42492
-1.5016 -0.382683 3.62519
-2.7746 -0.382683 2.7746
-1.41865 -0.707107 3.42492
-2.62132 -0.707107 2.62132
-2.82843 0 2.82843
-3.69552 0 1.53073
-2.7746 -0.382683 2.7746
-3.62519 -0.382683 1.5016
-3.69552 0 1.53073
-4 0 0
-3.62519 -0.382683 1.5016
-3.92388 -0.382683 4.80537e-16
-2.7746 -0.382683 2.7746
-3.62519 -0.382683 1.5016
-2.62132 -0.707107 2.62132
-3.42492 -0.707107 1.41865
[...]
POINT_DATA 1024
SCALARS U double 1
LOOKUP_TABLE default
0.0725053 0.072732 0.101124 0.101416 0.072732 0.0710762 0.101416 0.0999017 0.101124 0.101416 0.132196 0.132501 0.101416 0.0999017 0.132501 0.131679 0.0710762 0.0557489 0.0999017 0.082577 0.0557489 0.0239199 0.082577 0.0419256 0.0999017 0.082577 0.131679 0.114559 0.082577 0.0419256 0.114559 0.0661012 0.132196 0.132501 0.149052 0.149259 0.132501 0.131679 0.149259 0.14938 0.149052 0.149259 0.152346 0.152381 0.149259 0.14938 0.152381 0.153304 0.131679 0.114559 0.14938 0.133682 0.114559 0.0661012 0.133682 0.0795855 0.14938 0.133682 0.153304 0.139583 0.133682 0.0795855 0.139583 0.0816538 0.0125501 0.0125765 0.0160838 0.0161444 0.0125765 0.0126 0.0161444 0.0158509 0.0160838 0.0161444 0.0294925 0.02959 0.0161444 0.0158509 0.02959 0.0288788 0.0126 0.0100232 0.0158509 0.0121233 0.0100232 0.0025291 0.0121233 0.00406741 0.0158509 0.0121233 0.0288788 0.0220497 0.0121233 0.00406741 0.0220497 0.00810528 0.0294925 0.02959 0.0495711 0.0497274 0.02959 0.0288788 0.0497274 0.0484648 0.0495711 0.0497274 0.0725053 0.072732 0.0497274 0.0484648 0.072732 0.0710762 0.0288788 0.0220497 0.0484648 0.0371889 0.0220497 0.00810528 0.0371889 0.0145154 0.0484648 0.0371889 0.0710762 0.0557489 0.0371889 0.0145154 0.0557489 0.0239199 0.0732042 0.0728963 0.0529665 0.052726 0.0728963 0.0742993 0.052726 0.0538493 0.0529665 0.052726 0.0338969 0.03376 0.052726 0.0538493 0.03376 0.0345127 0.0742993 0.067835 0.0538493 0.0486118 0.067835 0.0135594 0.0486118 0.00705626 0.0538493 0.0486118 0.0345127 0.0305092 0.0486118 0.00705626 0.0305092 0.00427955 0.0338969 0.03376 0.0190608 0.0190232 0.03376 0.0345127 0.0190232 0.0193867 0.0190608 0.0190232 0.0125501 0.0125765 0.0190232 0.0193867 0.0125765 0.0126 0.0345127 0.0305092 0.0193867 0.016461 0.0305092 0.00427955 0.016461 0.00275801 0.0193867 0.016461 0.0126 0.0100232 0.016461 0.00275801 0.0100232 0.0025291 0.152346 0.152381 0.14717 0.147035 0.152381 0.153304 0.147035 0.148445 0.14717 0.147035 0.128703 0.128443 0.147035 0.148445 0.128443 0.130048 0.153304 0.139583 0.148445 0.136815 0.139583 0.0816538 0.136815 0.0764417 0.148445 0.136815 0.130048 0.12038 0.136815 0.0764417 0.12038 0.0587081 0.128703 0.128443 0.0987557 0.0984389 0.128443 0.130048 0.0984389 0.100012 0.0987557 0.0984389 0.0732042 0.0728963 0.0984389 0.100012 0.0728963 0.0742993 0.130048 0.12038 0.100012 0.0921182 0.12038 0.0587081 0.0921182 0.0313812 0.100012 0.0921182 0.0742993 0.067835 0.0921182 0.0313812 0.067835 0.0135594 0.0239199 0.00401007 0.0419256 0.00643404 0.00401007 -6.56909e-05 0.00643404 -0.000281773 0.0419256 0.00643404 0.0661012 0.00783158 0.00643404 -0.000281773 0.00783158 -0.000668273 -6.56909e-05 -5.92633e-05 -0.000281773 -4.39809e-05 -5.92633e-05 1.3102e-05 -4.39809e-05 8.34768e-06 -0.000281773 -4.39809e-05 -0.000668273 2.99261e-05 -4.39809e-05 8.34768e-06 2.99261e-05 -1.28129e-05 0.0661012 0.00783158 0.0795855 0.00689411 0.00783158 -0.000668273 0.00689411 -0.000816481 0.0795855 0.00689411 0.0816538 0.00449877 0.00689411 -0.000816481 0.00449877 -0.00068364 -0.000668273 2.99261e-05 -0.000816481 7.73807e-05 2.99261e-05 -1.28129e-05 7.73807e-05 -2.13351e-05 -0.000816481 7.73807e-05 -0.00068364 8.45759e-05 7.73807e-05 -2.13351e-05 8.45759e-05 -2.02561e-05 0.0025291 -4.28207e-05 0.00406741 0.000277917 -4.28207e-05 -1.89835e-05 0.000277917 -5.44726e-05 0.00406741 0.000277917 0.00810528 0.000879669 0.000277917 -5.44726e-05 0.000879669 -7.82031e-05 -1.89835e-05 3.56934e-06 -5.44726e-05 6.81084e-07 3.56934e-06 -9.82307e-07 6.81084e-07 1.67418e-06 -5.44726e-05 6.81084e-07 -7.82031e-05 -8.27583e-06 6.81084e-07 1.67418e-06 -8.27583e-06 3.86902e-06 0.00810528 0.000879669 0.0145154 0.00207237 0.000879669 -7.82031e-05 0.00207237 -6.95442e-05 0.0145154 0.00207237 0.0239199 0.00401007 0.00207237 -6.95442e-05 0.00401007 -6.56909e-05 -7.82031e-05 -8.27583e-06 -6.95442e-05 -2.97013e-05 -8.27583e-06 3.86902e-06 -2.97013e-05 7.09246e-06 -6.95442e-05 -2.97013e-05 -6.56909e-05 -5.92633e-05 -2.97013e-05 7.09246e-06 -5.92633e-05 1.3102e-05 0.0135594 -0.000392553 0.00705626 -0.000600513 -0.000392553 3.97385e-05 -0.000600513 9.64965e-05 0.00705626 -0.000600513 0.00427955 -0.000548426 -0.000600513 9.64965e-05 -0.000548426 8.36334e-05 3.97385e-05 -1.58956e-06 9.64965e-05 -1.27859e-05 -1.58956e-06 -4.93274e-07 -1.27859e-05 2.38949e-06 9.64965e-05 -1.27859e-05 8.36334e-05 -9.44806e-06 -1.27859e-05 2.38949e-06 -9.44806e-06 6.94383e-07 0.00427955 -0.000548426 0.00275801 -0.000312453 -0.000548426 8.36334e-05 -0.000312453 3.0695e-05 0.00275801 -0.000312453 0.0025291 -4.28207e-05 -0.000312453 3.0695e-05 -4.28207e-05 -1.89835e-05 8.36334e-05 -9.44806e-06 3.0695e-05 -4.4869e-07 -9.44806e-06 6.94383e-07 -4.4869e-07 -1.63329e-06 3.0695e-05 -4.4869e-07 -1.89835e-05 3.56934e-06 -4.4869e-07 -1.63329e-06 3.56934e-06 -9.82307e-07 0.0816538 0.00449877 0.0764417 0.0018797 0.00449877 -0.00068364 0.0018797 -0.00038979 0.0764417 0.0018797 0.0587081 0.000178302 0.0018797 -0.00038979 0.000178302 -0.000123527 -0.00068364 8.45759e-05 -0.00038979 6.2906e-05 8.45759e-05 -2.02561e-05 6.2906e-05 -1.682e-05 -0.00038979 6.2906e-05 -0.000123527 2.91457e-05 6.2906e-05 -1.682e-05 2.91457e-05 -9.07925e-06 0.0587081 0.000178302 0.0313812 -0.000215017 0.000178302 -0.000123527 -0.000215017 -2.77834e-05 0.0313812 -0.000215017 0.0135594 -0.000392553 -0.000215017 -2.77834e-05 -0.000392553 3.97385e-05 -0.000123527 2.91457e-05 -2.77834e-05 1.29503e-05 2.91457e-05 -9.07925e-06 1.29503e-05 -4.70305e-06 -2.77834e-05 1.29503e-05 3.97385e-05 -1.58956e-06 1.29503e-05 -4.70305e-06 -1.58956e-06 -4.93274e-07 1.3102e-05 -5.92638e-05 8.34768e-06 -4.3979e-05 -5.92638e-05 -6.56974e-05 -4.3979e-05 -0.000281793 8.34768e-06 -4.3979e-05 -1.28129e-05 2.9924e-05 -4.3979e-05 -0.000281793 2.9924e-05 -0.000668291 -6.56974e-05 0.00401007 -0.000281793 0.00643404 0.00401007 0.0239199 0.00643404 0.0419256 -0.000281793 0.00643404 -0.000668291 0.00783156 0.00643404 0.0419256 0.00783156 0.0661012 -1.28129e-05 2.9924e-05 -2.13351e-05 7.73835e-05 2.9924e-05 -0.000668291 7.73835e-05 -0.000816489 -2.13351e-05 7.73835e-05 -2.02561e-05 8.45797e-05 7.73835e-05 -0.000816489 8.45797e-05 -0.000683634 -0.000668291 0.00783156 -0.000816489 0.0068941 0.00783156 0.0661012 0.0068941 0.0795855 -0.000816489 0.0068941 -0.000683634 0.00449877 0.0068941 0.0795855 0.00449877 0.0816538 -9.82307e-07 3.57026e-06 1.67418e-06 6.83313e-07 3.57026e-06 -1.89807e-05 6.83313e-07 -5.44735e-05 1.67418e-06 6.83313e-07 3.86902e-06 -8.27933e-06 6.83313e-07 -5.44735e-05 -8.27933e-06 -7.81959e-05 -1.89807e-05 -4.2816e-05 -5.44735e-05 0.00027793 -4.2816e-05 0.0025291 0.00027793 0.00406741 -5.44735e-05 0.00027793 -7.81959e-05 0.000879674 0.00027793 0.00406741 0.000879674 0.00810527 3.86902e-06 -8.27933e-06 7.09246e-06 -2.96958e-05 -8.27933e-06 -7.81959e-05 -2.96958e-05 -6.95473e-05 7.09246e-06 -2.96958e-05 1.3102e-05 -5.92638e-05 -2.96958e-05 -6.95473e-05 -5.92638e-05 -6.56974e-05 -7.81959e-05 0.000879674 -6.95473e-05 0.00207237 0.000879674 0.00810527 0.00207237 0.0145154 -6.95473e-05 0.00207237 -6.56974e-05 0.00401007 0.00207237 0.0145154 0.00401007 0.0239199 -4.93274e-07 -1.59232e-06 2.38949e-06 -1.2781e-05 -1.59232e-06 3.97422e-05 -1.2781e-05 9.64924e-05 2.38949e-06 -1.2781e-05 6.94383e-07 -9.44814e-06 -1.2781e-05 9.64924e-05 -9.44814e-06 8.36374e-05 3.97422e-05 -0.000392561 9.64924e-05 -0.000600517 -0.000392561 0.0135594 -0.000600517 0.00705626 9.64924e-05 -0.000600517 8.36374e-05 -0.000548433 -0.000600517 0.00705626 -0.000548433 0.00427955 6.94383e-07 -9.44814e-06 -1.63329e-06 -4.48424e-07 -9.44814e-06 8.36374e-05 -4.48424e-07 3.06964e-05 -1.63329e-06 -4.48424e-07 -9.82307e-07 3.57026e-06 -4.48424e-07 3.06964e-05 3.57026e-06 -1.89807e-05 8.36374e-05 -0.000548433 3.06964e-05 -0.000312455 -0.000548433 0.00427955 -0.000312455 0.00275801 3.06964e-05 -0.000312455 -1.89807e-05 -4.2816e-05 -0.000312455 0.00275801 -4.2816e-05 0.0025291 -2.02561e-05 8.45797e-05 -1.682e-05 6.29103e-05 8.45797e-05 -0.000683634 6.29103e-05 -0.000389778 -1.682e-05 6.29103e-05 -9.07925e-06 2.91429e-05 6.29103e-05 -0.000389778 2.91429e-05 -0.000123505 -0.000683634 0.00449877 -0.000389778 0.0018797 0.00449877 0.0816538 0.0018797 0.0764417 -0.000389778 0.0018797 -0.000123505 0.0001783 0.0018797 0.0764417 0.0001783 0.0587082 -9.07925e-06 2.91429e-05 -4.70305e-06 1.29509e-05 2.91429e-05 -0.000123505 1.29509e-05 -2.77782e-05 -4.70305e-06 1.29509e-05 -4.93274e-07 -1.59232e-06 1.29509e-05 -2.77782e-05 -1.59232e-06 3.97422e-05 -0.000123505 0.0001783 -2.77782e-05 -0.000215021 0.0001783 0.0587082 -0.000215021 0.0313812 -2.77782e-05 -0.000215021 3.97422e-05 -0.000392561 -0.000215021 0.0313812 -0.000392561 0.0135594 0.0239199 0.0557489 0.0419256 0.082577 0.0557489 0.0710762 0.082577 0.0999017 0.0419256 0.082577 0.0661012 0.114559 0.082577 0.0999017 0.114559 0.131679 0.0710762 0.072732 0.0999017 0.101416 0.072732 0.0725053 0.101416 0.101124 0.0999017 0.101416 0.131679 0.132501 0.101416 0.101124 0.132501 0.132196 0.0661012 0.114559 0.0795855 0.133682 0.114559 0.131679 0.133682 0.14938 0.0795855 0.133682 0.0816538 0.139583 0.133682 0.14938 0.139583 0.153304 0.131679 0.132501 0.14938 0.149259 0.132501 0.132196 0.149259 0.149052 0.14938 0.149259 0.153304 0.152381 0.149259 0.149052 0.152381 0.152346 0.0025291 0.0100232 0.00406741 0.0121233 0.0100232 0.0126 0.0121233 0.0158509 0.00406741 0.0121233 0.00810527 0.0220497 0.0121233 0.0158509 0.0220497 0.0288788 0.0126 0.0125765 0.0158509 0.0161443 0.0125765 0.0125501 0.0161443 0.0160838 0.0158509 0.0161443 0.0288788 0.02959 0.0161443 0.0160838 0.02959 0.0294925 0.00810527 0.0220497 0.0145154 0.0371889 0.0220497 0.0288788 0.0371889 0.0484648 0.0145154 0.0371889 0.0239199 0.0557489 0.0371889 0.0484648 0.0557489 0.0710762 0.0288788 0.02959 0.0484648 0.0497274 0.02959 0.0294925 0.0497274 0.0495711 0.0484648 0.0497274 0.0710762 0.072732 0.0497274 0.0495711 0.072732 0.0725053 0.0135594 0.067835 0.00705626 0.0486118 0.067835 0.0742993 0.0486118 0.0538493 0.00705626 0.0486118 0.00427955 0.0305092 0.0486118 0.0538493 0.0305092 0.0345127 0.0742993 0.0728963 0.0538493 0.052726 0.0728963 0.0732042 0.052726 0.0529665 0.0538493 0.052726 0.0345127 0.03376 0.052726 0.0529665 0.03376 0.0338969 0.00427955 0.0305092 0.00275801 0.016461 0.0305092 0.0345127 0.016461 0.0193867 0.00275801 0.016461 0.0025291 0.0100232 0.016461 0.0193867 0.0100232 0.0126 0.0345127 0.03376 0.0193867 0.0190231 0.03376 0.0338969 0.0190231 0.0190608 0.0193867 0.0190231 0.0126 0.0125765 0.0190231 0.0190608 0.0125765 0.0125501 0.0816538 0.139583 0.0764417 0.136815 0.139583 0.153304 0.136815 0.148445 0.0764417 0.136815 0.0587082 0.12038 0.136815 0.148445 0.12038 0.130048 0.153304 0.152381 0.148445 0.147034 0.152381 0.152346 0.147034 0.14717 0.148445 0.147034 0.130048 0.128443 0.147034 0.14717 0.128443 0.128703 0.0587082 0.12038 0.0313812 0.0921182 0.12038 0.130048 0.0921182 0.100012 0.0313812 0.0921182 0.0135594 0.067835 0.0921182 0.100012 0.067835 0.0742993 0.130048 0.128443 0.100012 0.0984389 0.128443 0.128703 0.0984389 0.0987557 0.100012 0.0984389 0.0742993 0.0728963 0.0984389 0.0987557 0.0728963 0.0732042 
