# vtk DataFile Version 3.0
#This file was generated by the deal.II library on 2023/3/8 at 18:39:21
ASCII
DATASET UNSTRUCTURED_GRID

FIELD FieldData 2
CYCLE 1 1 int
26
TIME 1 1 double
0.052
POINTS 1024 double
2 0 0
1.84776 1.22465e-16 0.765367
2.07612 0.382683 0
1.91809 0.382683 0.794497
1.84776 1.22465e-16 0.765367
1.41421 1.22465e-16 1.41421
1.91809 0.382683 0.794497
1.46804 0.382683 1.46804
2.07612 0.382683 0
1.91809 0.382683 0.794497
2.29289 0.707107 0
2.11836 0.707107 0.877452
1.91809 0.382683 0.794497
1.46804 0.382683 1.46804
2.11836 0.707107 0.877452
1.62132 0.707107 1.62132
1.41421 1.22465e-16 1.41421
0.765367 1.22465e-16 1.84776
1.46804 0.382683 1.46804
0.794497 0.382683 1.91809
0.765367 1.22465e-16 1.84776
0 0 2
0.794497 0.382683 1.91809
1.27126e-16 0.382683 2.07612
1.46804 0.382683 1.46804
0.794497 0.382683 1.91809
1.62132 0.707107 1.62132
0.877452 0.707107 2.11836
0.794497 0.382683 1.91809
1.27126e-16 0.382683 2.07612
0.877452 0.707107 2.11836
1.40399e-16 0.707107 2.29289
2.29289 0.707107 0
2.11836 0.707107 0.877452
2.61732 0.92388 0
2.41809 0.92388 1.0016
2.11836 0.707107 0.877452
1.62132 0.707107 1.62132
2.41809 0.92388 1.0016
1.85072 0.92388 1.85072
2.61732 0.92388 0
2.41809 0.92388 1.0016
3 1 0
2.77164 1 1.14805
2.41809 0.92388 1.0016
1.85072 0.92388 1.85072
2.77164 1 1.14805
2.12132 1 2.12132
1.62132 0.707107 1.62132
0.877452 0.707107 2.11836
1.85072 0.92388 1.85072
1.0016 0.92388 2.41809
0.877452 0.707107 2.11836
1.40399e-16 0.707107 2.29289
1.0016 0.92388 2.41809
1.60264e-16 0.92388 2.61732
1.85072 0.92388 1.85072
1.0016 0.92388 2.41809
2.12132 1 2.12132
1.14805 1 2.77164
1.0016 0.92388 2.41809
1.60264e-16 0.92388 2.61732
1.14805 1 2.77164
0 1 3
3 -1 0
2.77164 -1 1.14805
2.61732 -0.92388 0
2.41809 -0.92388 1.0016
2.77164 -1 1.14805
2.12132 -1 2.12132
2.41809 -0.92388 1.0016
1.85072 -0.92388 1.85072
2.61732 -0.92388 0
2.41809 -0.92388 1.0016
2.29289 -0.707107 0
2.11836 -0.707107 0.877452
2.41809 -0.92388 1.0016
1.85072 -0.92388 1.85072
2.11836 -0.707107 0.877452
1.62132 -0.707107 1.62132
2.12132 -1 2.12132
1.14805 -1 2.77164
1.85072 -0.92388 1.85072
1.0016 -0.92388 2.41809
1.14805 -1 2.77164
0 -1 3
1.0016 -0.92388 2.41809
1.60264e-16 -0.92388 2.61732
1.85072 -0.92388 1.85072
1.0016 -0.92388 2.41809
1.62132 -0.707107 1.62132
0.877452 -0.707107 2.11836
1.0016 -0.92388 2.41809
1.60264e-16 -0.92388 2.61732
0.877452 -0.707107 2.11836
1.40399e-16 -0.707107 2.29289
2.29289 -0.707107 0
2.11836 -0.707107 0.877452
2.07612 -0.382683 0
1.91809 -0.382683 0.794497
2.11836 -0.707107 0.877452
1.62132 -0.707107 1.62132
1.91809 -0.382683 0.794497
1.46804 -0.382683 1.46804
2.07612 -0.382683 0
1.91809 -0.382683 0.794497
2 0 0
1.84776 1.22465e-16 0.765367
1.91809 -0.382683 0.794497
1.46804 -0.382683 1.46804
1.84776 1.22465e-16 0.765367
1.41421 1.22465e-16 1.41421
1.62132 -0.707107 1.62132
0.877452 -0.707107 2.11836
1.46804 -0.382683 1.46804
0.794497 -0.382683 1.91809
0.877452 -0.707107 2.11836
1.40399e-16 -0.707107 2.29289
0.794497 -0.382683 1.91809
1.27126e-16 -0.382683 2.07612
1.46804 -0.382683 1.46804
0.794497 -0.382683 1.91809
1.41421 1.22465e-16 1.41421
0.765367 1.22465e-16 1.84776
0.794497 -0.382683 1.91809
1.27126e-16 -0.382683 2.07612
0.765367 1.22465e-16 1.84776
0 0 2
4 0 0
3.69552 0 1.53073
3.92388 -0.382683 0
3.62519 -0.382683 1.5016
3.69552 0 1.53073
2.82843 0 2.82843
3.62519 -0.382683 1.5016
2.7746 -0.382683 2.7746
3.92388 -0.382683 0
3.62519 -0.382683 1.5016
3.70711 -0.707107 0
3.42492 -0.707107 1.41865
3.62519 -0.382683 1.5016
2.7746 -0.382683 2.7746
3.42492 -0.707107 1.41865
2.62132 -0.707107 2.62132
2.82843 0 2.82843
1.53073 0 3.69552
2.7746 -0.382683 2.7746
1.5016 -0.382683 3.62519
1.53073 0 3.69552
0 0 4
1.5016 -0.382683 3.62519
2.40268e-16 -0.382683 3.92388
2.7746 -0.382683 2.7746
1.5016 -0.382683 3.62519
2.62132 -0.707107 2.62132
1.41865 -0.707107 3.42492
1.5016 -0.382683 3.62519
2.40268e-16 -0.382683 3.92388
1.41865 -0.707107 3.42492
2.26995e-16 -0.707107 3.70711
3.70711 -0.707107 0
3.42492 -0.707107 1.41865
3.38268 -0.92388 0
3.12519 -0.92388 1.2945
3.42492 -0.707107 1.41865
2.62132 -0.707107 2.62132
3.12519 -0.92388 1.2945
2.39192 -0.92388 2.39192
3.38268 -0.92388 0
3.12519 -0.92388 1.2945
3 -1 0
2.77164 -1 1.14805
3.12519 -0.92388 1.2945
2.39192 -0.92388 2.39192
2.77164 -1 1.14805
2.12132 -1 2.12132
2.62132 -0.707107 2.62132
1.41865 -0.707107 3.42492
2.39192 -0.92388 2.39192
1.2945 -0.92388 3.12519
1.41865 -0.707107 3.42492
2.26995e-16 -0.707107 3.70711
1.2945 -0.92388 3.12519
2.0713e-16 -0.92388 3.38268
2.39192 -0.92388 2.39192
1.2945 -0.92388 3.12519
2.12132 -1 2.12132
1.14805 -1 2.77164
1.2945 -0.92388 3.12519
2.0713e-16 -0.92388 3.38268
1.14805 -1 2.77164
0 -1 3
3 1 0
2.77164 1 1.14805
3.38268 0.92388 0
3.12519 0.92388 1.2945
2.77164 1 1.14805
2.12132 1 2.12132
3.12519 0.92388 1.2945
2.39192 0.92388 2.39192
3.38268 0.92388 0
3.12519 0.92388 1.2945
3.70711 0.707107 0
3.42492 0.707107 1.41865
3.12519 0.92388 1.2945
2.39192 0.92388 2.39192
3.42492 0.707107 1.41865
2.62132 0.707107 2.62132
2.12132 1 2.12132
1.14805 1 2.77164
2.39192 0.92388 2.39192
1.2945 0.92388 3.12519
1.14805 1 2.77164
0 1 3
1.2945 0.92388 3.12519
2.0713e-16 0.92388 3.38268
2.39192 0.92388 2.39192
1.2945 0.92388 3.12519
2.62132 0.707107 2.62132
1.41865 0.707107 3.42492
1.2945 0.92388 3.12519
2.0713e-16 0.92388 3.38268
1.41865 0.707107 3.42492
2.26995e-16 0.707107 3.70711
3.70711 0.707107 0
3.42492 0.707107 1.41865
3.92388 0.382683 0
3.62519 0.382683 1.5016
3.42492 0.707107 1.41865
2.62132 0.707107 2.62132
3.62519 0.382683 1.5016
2.7746 0.382683 2.7746
3.92388 0.382683 0
3.62519 0.382683 1.5016
4 0 0
3.69552 0 1.53073
3.62519 0.382683 1.5016
2.7746 0.382683 2.7746
3.69552 0 1.53073
2.82843 0 2.82843
2.62132 0.707107 2.62132
1.41865 0.707107 3.42492
2.7746 0.382683 2.7746
1.5016 0.382683 3.62519
1.41865 0.707107 3.42492
2.26995e-16 0.707107 3.70711
1.5016 0.382683 3.62519
2.40268e-16 0.382683 3.92388
2.7746 0.382683 2.7746
1.5016 0.382683 3.62519
2.82843 0 2.82843
1.53073 0 3.69552
1.5016 0.382683 3.62519
2.40268e-16 0.382683 3.92388
1.53073 0 3.69552
0 0 4
0 0 2
-0.765367 1.22465e-16 1.84776
1.27126e-16 0.382683 2.07612
-0.794497 0.382683 1.91809
-0.765367 1.22465e-16 1.84776
-1.41421 1.22465e-16 1.41421
-0.794497 0.382683 1.91809
-1.46804 0.382683 1.46804
1.27126e-16 0.382683 2.07612
-0.794497 0.382683 1.91809
1.40399e-16 0.707107 2.29289
-0.877452 0.707107 2.11836
-0.794497 0.382683 1.91809
-1.46804 0.382683 1.46804
-0.877452 0.707107 2.11836
-1.62132 0.707107 1.62132
-1.41421 1.22465e-16 1.41421
-1.84776 1.22465e-16 0.765367
-1.46804 0.382683 1.46804
-1.91809 0.382683 0.794497
-1.84776 1.22465e-16 0.765367
-2 0 0
-1.91809 0.382683 0.794497
-2.07612 0.382683 2.54251e-16
-1.46804 0.382683 1.46804
-1.91809 0.382683 0.794497
-1.62132 0.707107 1.62132
-2.11836 0.707107 0.877452
-1.91809 0.382683 0.794497
-2.07612 0.382683 2.54251e-16
-2.11836 0.707107 0.877452
-2.29289 0.707107 2.80798e-16
1.40399e-16 0.707107 2.29289
-0.877452 0.707107 2.11836
1.60264e-16 0.92388 2.61732
-1.0016 0.92388 2.41809
-0.877452 0.707107 2.11836
-1.62132 0.707107 1.62132
-1.0016 0.92388 2.41809
-1.85072 0.92388 1.85072
1.60264e-16 0.92388 2.61732
-1.0016 0.92388 2.41809
0 1 3
-1.14805 1 2.77164
-1.0016 0.92388 2.41809
-1.85072 0.92388 1.85072
-1.14805 1 2.77164
-2.12132 1 2.12132
-1.62132 0.707107 1.62132
-2.11836 0.707107 0.877452
-1.85072 0.92388 1.85072
-2.41809 0.92388 1.0016
-2.11836 0.707107 0.877452
-2.29289 0.707107 2.80798e-16
-2.41809 0.92388 1.0016
-2.61732 0.92388 3.20529e-16
-1.85072 0.92388 1.85072
-2.41809 0.92388 1.0016
-2.12132 1 2.12132
-2.77164 1 1.14805
-2.41809 0.92388 1.0016
-2.61732 0.92388 3.20529e-16
-2.77164 1 1.14805
-3 1 0
0 -1 3
-1.14805 -1 2.77164
1.60264e-16 -0.92388 2.61732
-1.0016 -0.92388 2.41809
-1.14805 -1 2.77164
-2.12132 -1 2.12132
-1.0016 -0.92388 2.41809
-1.85072 -0.92388 1.85072
1.60264e-16 -0.92388 2.61732
-1.0016 -0.92388 2.41809
1.40399e-16 -0.707107 2.29289
-0.877452 -0.707107 2.11836
-1.0016 -0.92388 2.41809
-1.85072 -0.92388 1.85072
-0.877452 -0.707107 2.11836
-1.62132 -0.707107 1.62132
-2.12132 -1 2.12132
-2.77164 -1 1.14805
-1.85072 -0.92388 1.85072
-2.41809 -0.92388 1.0016
-2.77164 -1 1.14805
-3 -1 0
-2.41809 -0.92388 1.0016
-2.61732 -0.92388 3.20529e-16
-1.85072 -0.92388 1.85072
-2.41809 -0.92388 1.0016
-1.62132 -0.707107 1.62132
-2.11836 -0.707107 0.877452
-2.41809 -0.92388 1.0016
-2.61732 -0.92388 3.20529e-16
-2.11836 -0.707107 0.877452
-2.29289 -0.707107 2.80798e-16
1.40399e-16 -0.707107 2.29289
-0.877452 -0.707107 2.11836
1.27126e-16 -0.382683 2.07612
-0.794497 -0.382683 1.91809
-0.877452 -0.707107 2.11836
-1.62132 -0.707107 1.62132
-0.794497 -0.382683 1.91809
-1.46804 -0.382683 1.46804
1.27126e-16 -0.382683 2.07612
-0.794497 -0.382683 1.91809
0 0 2
-0.765367 1.22465e-16 1.84776
-0.794497 -0.382683 1.91809
-1.46804 -0.382683 1.46804
-0.765367 1.22465e-16 1.84776
-1.41421 1.22465e-16 1.41421
-1.62132 -0.707107 1.62132
-2.11836 -0.707107 0.877452
-1.46804 -0.382683 1.46804
-1.91809 -0.382683 0.794497
-2.11836 -0.707107 0.877452
-2.29289 -0.707107 2.80798e-16
-1.91809 -0.382683 0.794497
-2.07612 -0.382683 2.54251e-16
-1.46804 -0.382683 1.46804
-1.91809 -0.382683 0.794497
-1.41421 1.22465e-16 1.41421
-1.84776 1.22465e-16 0.765367
-1.91809 -0.382683 0.794497
-2.07612 -0.382683 2.54251e-16
-1.84776 1.22465e-16 0.765367
-2 0 0
0 0 4
-1.53073 0 3.69552
2.40268e-16 -0.382683 3.92388
-1.5016 -0.382683 3.62519
-1.53073 0 3.69552
-2.82843 0 2.82843
-1.5016 -0.382683 3.62519
-2.7746 -0.382683 2.7746
2.40268e-16 -0.382683 3.92388
-1.5016 -0.382683 3.62519
2.26995e-16 -0.707107 3.70711
-1.41865 -0.707107 3.42492
-1.5016 -0.382683 3.62519
-2.7746 -0.382683 2.7746
-1.41865 -0.707107 3.42492
-2.62132 -0.707107 2.62132
-2.82843 0 2.82843
-3.69552 0 1.53073
-2.7746 -0.382683 2.7746
-3.62519 -0.382683 1.5016
-3.69552 0 1.53073
-4 0 0
-3.62519 -0.382683 1.5016
-3.92388 -0.382683 4.80537e-16
-2.7746 -0.382683 2.7746
-3.62519 -0.382683 1.5016
-2.62132 -0.707107 2.62132
-3.42492 -0.707107 1.41865
[...]
POINT_DATA 1024
SCALARS U double 1
LOOKUP_TABLE default
0.0395441 0.0393449 0.0391277 0.0389474 0.0393449 0.0397682 0.0389474 0.0392916 0.0391277 0.0389474 0.0390247 0.0389056 0.0389474 0.0392916 0.0389056 0.0390152 0.0397682 0.0392899 0.0392916 0.0391453 0.0392899 0.000181505 0.0391453 -8.54555e-05 0.0392916 0.0391453 0.0390152 0.0398083 0.0391453 -8.54555e-05 0.0398083 -0.000834528 0.0390247 0.0389056 0.0390265 0.0390009 0.0389056 0.0390152 0.0390009 0.0388026 0.0390265 0.0390009 0.0389864 0.0390635 0.0390009 0.0388026 0.0390635 0.0385633 0.0390152 0.0398083 0.0388026 0.0407084 0.0398083 -0.000834528 0.0407084 -0.00170387 0.0388026 0.0407084 0.0385633 0.0414659 0.0407084 -0.00170387 0.0414659 -0.00246745 -0.000126383 -0.000125535 -0.000363212 -0.000362895 -0.000125535 -0.00012695 -0.000362895 -0.000361657 -0.000363212 -0.000362895 0.00707134 0.00704026 -0.000362895 -0.000361657 0.00704026 0.00709429 -0.00012695 -0.000126832 -0.000361657 -0.000376184 -0.000126832 7.83078e-07 -0.000376184 1.31861e-05 -0.000361657 -0.000376184 0.00709429 0.00710703 -0.000376184 1.31861e-05 0.00710703 -4.76743e-05 0.00707134 0.00704026 0.0311194 0.0309817 0.00704026 0.00709429 0.0309817 0.0312371 0.0311194 0.0309817 0.0395441 0.0393449 0.0309817 0.0312371 0.0393449 0.0397682 0.00709429 0.00710703 0.0312371 0.0311846 0.00710703 -4.76743e-05 0.0311846 -0.000117387 0.0312371 0.0311846 0.0397682 0.0392899 0.0311846 -0.000117387 0.0392899 0.000181505 0.0393759 0.0396593 0.0316061 0.0318307 0.0396593 0.0386084 0.0318307 0.0309945 0.0316061 0.0318307 0.00784891 0.00789011 0.0318307 0.0309945 0.00789011 0.0077192 0.0386084 0.04319 0.0309945 0.0346507 0.04319 -0.00372997 0.0346507 -0.00297807 0.0309945 0.0346507 0.0077192 0.00852119 0.0346507 -0.00297807 0.00852119 -0.000661003 0.00784891 0.00789011 -0.000440777 -0.000445735 0.00789011 0.0077192 -0.000445735 -0.000429242 -0.000440777 -0.000445735 -0.000126383 -0.000125535 -0.000445735 -0.000429242 -0.000125535 -0.00012695 0.0077192 0.00852119 -0.000429242 -0.000494751 0.00852119 -0.000661003 -0.000494751 5.24088e-05 -0.000429242 -0.000494751 -0.00012695 -0.000126832 -0.000494751 5.24088e-05 -0.000126832 7.83078e-07 0.0389864 0.0390635 0.0389634 0.0391291 0.0390635 0.0385633 0.0391291 0.0383862 0.0389634 0.0391291 0.038908 0.0391374 0.0391291 0.0383862 0.0391374 0.038228 0.0385633 0.0414659 0.0383862 0.0420421 0.0414659 -0.00246745 0.0420421 -0.00303612 0.0383862 0.0420421 0.038228 0.0423793 0.0420421 -0.00303612 0.0423793 -0.00340627 0.038908 0.0391374 0.0389756 0.0392423 0.0391374 0.038228 0.0392423 0.038237 0.0389756 0.0392423 0.0393759 0.0396593 0.0392423 0.038237 0.0396593 0.0386084 0.038228 0.0423793 0.038237 0.0426712 0.0423793 -0.00340627 0.0426712 -0.00361731 0.038237 0.0426712 0.0386084 0.04319 0.0426712 -0.00361731 0.04319 -0.00372997 0.000181505 -0.000294032 -8.54555e-05 -0.000228947 -0.000294032 0.000117637 -0.000228947 0.00010393 -8.54555e-05 -0.000228947 -0.000834528 -3.87712e-05 -0.000228947 0.00010393 -3.87712e-05 6.10673e-05 0.000117637 -3.86299e-05 0.00010393 -3.62311e-05 -3.86299e-05 1.97751e-05 -3.62311e-05 1.9197e-05 0.00010393 -3.62311e-05 6.10673e-05 -2.76089e-05 -3.62311e-05 1.9197e-05 -2.76089e-05 1.64587e-05 -0.000834528 -3.87712e-05 -0.00170387 0.000203881 -3.87712e-05 6.10673e-05 0.000203881 -5.4702e-07 -0.00170387 0.000203881 -0.00246745 0.000436039 0.000203881 -5.4702e-07 0.000436039 -6.53917e-05 6.10673e-05 -2.76089e-05 -5.4702e-07 -1.26195e-05 -2.76089e-05 1.64587e-05 -1.26195e-05 1.02662e-05 -5.4702e-07 -1.26195e-05 -6.53917e-05 5.29388e-06 -1.26195e-05 1.02662e-05 5.29388e-06 1.85174e-06 7.83078e-07 8.91657e-07 1.31861e-05 -1.3678e-06 8.91657e-07 -4.66776e-07 -1.3678e-06 -6.78801e-08 1.31861e-05 -1.3678e-06 -4.76743e-05 -3.44102e-05 -1.3678e-06 -6.78801e-08 -3.44102e-05 1.75557e-05 -4.66776e-07 1.81221e-07 -6.78801e-08 1.15434e-07 1.81221e-07 -1.04385e-07 1.15434e-07 -8.72844e-08 -6.78801e-08 1.15434e-07 1.75557e-05 -6.41912e-06 1.15434e-07 -8.72844e-08 -6.41912e-06 3.49125e-06 -4.76743e-05 -3.44102e-05 -0.000117387 -0.000167747 -3.44102e-05 1.75557e-05 -0.000167747 7.88974e-05 -0.000117387 -0.000167747 0.000181505 -0.000294032 -0.000167747 7.88974e-05 -0.000294032 0.000117637 1.75557e-05 -6.41912e-06 7.88974e-05 -2.78713e-05 -6.41912e-06 3.49125e-06 -2.78713e-05 1.487e-05 7.88974e-05 -2.78713e-05 0.000117637 -3.86299e-05 -2.78713e-05 1.487e-05 -3.86299e-05 1.97751e-05 -0.00372997 0.000849568 -0.00297807 0.00067652 0.000849568 -0.000190908 0.00067652 -0.000151539 -0.00297807 0.00067652 -0.000661003 0.000140819 0.00067652 -0.000151539 0.000140819 -2.89519e-05 -0.000190908 4.3757e-05 -0.000151539 3.45841e-05 4.3757e-05 -1.79487e-05 3.45841e-05 -1.41251e-05 -0.000151539 3.45841e-05 -2.89519e-05 5.77696e-06 3.45841e-05 -1.41251e-05 5.77696e-06 -1.99551e-06 -0.000661003 0.000140819 5.24088e-05 -1.30499e-05 0.000140819 -2.89519e-05 -1.30499e-05 3.22344e-06 5.24088e-05 -1.30499e-05 7.83078e-07 8.91657e-07 -1.30499e-05 3.22344e-06 8.91657e-07 -4.66776e-07 -2.89519e-05 5.77696e-06 3.22344e-06 -8.25007e-07 5.77696e-06 -1.99551e-06 -8.25007e-07 3.7317e-07 3.22344e-06 -8.25007e-07 -4.66776e-07 1.81221e-07 -8.25007e-07 3.7317e-07 1.81221e-07 -1.04385e-07 -0.00246745 0.000436039 -0.00303612 0.00061944 0.000436039 -6.53917e-05 0.00061944 -0.000119906 -0.00303612 0.00061944 -0.00340627 0.000743783 0.00061944 -0.000119906 0.000743783 -0.00015839 -6.53917e-05 5.29388e-06 -0.000119906 2.15442e-05 5.29388e-06 1.85174e-06 2.15442e-05 -6.31846e-06 -0.000119906 2.15442e-05 -0.00015839 3.35534e-05 2.15442e-05 -6.31846e-06 3.35534e-05 -1.25793e-05 -0.00340627 0.000743783 -0.00361731 0.000815134 0.000743783 -0.00015839 0.000815134 -0.000180747 -0.00361731 0.000815134 -0.00372997 0.000849568 0.000815134 -0.000180747 0.000849568 -0.000190908 -0.00015839 3.35534e-05 -0.000180747 4.06596e-05 3.35534e-05 -1.25793e-05 4.06596e-05 -1.63475e-05 -0.000180747 4.06596e-05 -0.000190908 4.3757e-05 4.06596e-05 -1.63475e-05 4.3757e-05 -1.79487e-05 1.97751e-05 -3.86318e-05 1.9197e-05 -3.62285e-05 -3.86318e-05 0.000117638 -3.62285e-05 0.000103929 1.9197e-05 -3.62285e-05 1.64587e-05 -2.76105e-05 -3.62285e-05 0.000103929 -2.76105e-05 6.10634e-05 0.000117638 -0.000294031 0.000103929 -0.000228945 -0.000294031 0.000181509 -0.000228945 -8.54561e-05 0.000103929 -0.000228945 6.10634e-05 -3.87724e-05 -0.000228945 -8.54561e-05 -3.87724e-05 -0.000834527 1.64587e-05 -2.76105e-05 1.02662e-05 -1.26207e-05 -2.76105e-05 6.10634e-05 -1.26207e-05 -5.44928e-07 1.02662e-05 -1.26207e-05 1.85174e-06 5.29479e-06 -1.26207e-05 -5.44928e-07 5.29479e-06 -6.53917e-05 6.10634e-05 -3.87724e-05 -5.44928e-07 0.000203881 -3.87724e-05 -0.000834527 0.000203881 -0.00170387 -5.44928e-07 0.000203881 -6.53917e-05 0.00043604 0.000203881 -0.00170387 0.00043604 -0.00246744 -1.04385e-07 1.81943e-07 -8.72844e-08 1.17492e-07 1.81943e-07 -4.65685e-07 1.17492e-07 -6.9324e-08 -8.72844e-08 1.17492e-07 3.49125e-06 -6.42095e-06 1.17492e-07 -6.9324e-08 -6.42095e-06 1.7559e-05 -4.65685e-07 8.90938e-07 -6.9324e-08 -1.36306e-06 8.90938e-07 7.84863e-07 -1.36306e-06 1.31886e-05 -6.9324e-08 -1.36306e-06 1.7559e-05 -3.44129e-05 -1.36306e-06 1.31886e-05 -3.44129e-05 -4.7679e-05 3.49125e-06 -6.42095e-06 1.487e-05 -2.78708e-05 -6.42095e-06 1.7559e-05 -2.78708e-05 7.88936e-05 1.487e-05 -2.78708e-05 1.97751e-05 -3.86318e-05 -2.78708e-05 7.88936e-05 -3.86318e-05 0.000117638 1.7559e-05 -3.44129e-05 7.88936e-05 -0.000167741 -3.44129e-05 -4.7679e-05 -0.000167741 -0.000117394 7.88936e-05 -0.000167741 0.000117638 -0.000294031 -0.000167741 -0.000117394 -0.000294031 0.000181509 -1.79487e-05 4.37555e-05 -1.41251e-05 3.45857e-05 4.37555e-05 -0.000190905 3.45857e-05 -0.000151539 -1.41251e-05 3.45857e-05 -1.99551e-06 5.77522e-06 3.45857e-05 -0.000151539 5.77522e-06 -2.89483e-05 -0.000190905 0.000849567 -0.000151539 0.000676518 0.000849567 -0.00372996 0.000676518 -0.00297806 -0.000151539 0.000676518 -2.89483e-05 0.000140818 0.000676518 -0.00297806 0.000140818 -0.000661002 -1.99551e-06 5.77522e-06 3.7317e-07 -8.24561e-07 5.77522e-06 -2.89483e-05 -8.24561e-07 3.22154e-06 3.7317e-07 -8.24561e-07 -1.04385e-07 1.81943e-07 -8.24561e-07 3.22154e-06 1.81943e-07 -4.65685e-07 -2.89483e-05 0.000140818 3.22154e-06 -1.30483e-05 0.000140818 -0.000661002 -1.30483e-05 5.24054e-05 3.22154e-06 -1.30483e-05 -4.65685e-07 8.90938e-07 -1.30483e-05 5.24054e-05 8.90938e-07 7.84863e-07 1.85174e-06 5.29479e-06 -6.31846e-06 2.15441e-05 5.29479e-06 -6.53917e-05 2.15441e-05 -0.000119907 -6.31846e-06 2.15441e-05 -1.25793e-05 3.3552e-05 2.15441e-05 -0.000119907 3.3552e-05 -0.000158385 -6.53917e-05 0.00043604 -0.000119907 0.000619437 0.00043604 -0.00246744 0.000619437 -0.00303612 -0.000119907 0.000619437 -0.000158385 0.000743783 0.000619437 -0.00303612 0.000743783 -0.00340627 -1.25793e-05 3.3552e-05 -1.63475e-05 4.06602e-05 3.3552e-05 -0.000158385 4.06602e-05 -0.000180747 -1.63475e-05 4.06602e-05 -1.79487e-05 4.37555e-05 4.06602e-05 -0.000180747 4.37555e-05 -0.000190905 -0.000158385 0.000743783 -0.000180747 0.000815133 0.000743783 -0.00340627 0.000815133 -0.00361732 -0.000180747 0.000815133 -0.000190905 0.000849567 0.000815133 -0.00361732 0.000849567 -0.00372996 0.000181509 0.0392899 -8.54561e-05 0.0391453 0.0392899 0.0397682 0.0391453 0.0392916 -8.54561e-05 0.0391453 -0.000834527 0.0398083 0.0391453 0.0392916 0.0398083 0.0390152 0.0397682 0.0393449 0.0392916 0.0389474 0.0393449 0.0395441 0.0389474 0.0391277 0.0392916 0.0389474 0.0390152 0.0389056 0.0389474 0.0391277 0.0389056 0.0390247 -0.000834527 0.0398083 -0.00170387 0.0407084 0.0398083 0.0390152 0.0407084 0.0388026 -0.00170387 0.0407084 -0.00246744 0.0414659 0.0407084 0.0388026 0.0414659 0.0385633 0.0390152 0.0389056 0.0388026 0.0390009 0.0389056 0.0390247 0.0390009 0.0390265 0.0388026 0.0390009 0.0385633 0.0390635 0.0390009 0.0390265 0.0390635 0.0389864 7.84863e-07 -0.000126827 1.31886e-05 -0.00037619 -0.000126827 -0.000126951 -0.00037619 -0.000361655 1.31886e-05 -0.00037619 -4.7679e-05 0.00710703 -0.00037619 -0.000361655 0.00710703 0.00709429 -0.000126951 -0.000125539 -0.000361655 -0.000362899 -0.000125539 -0.000126383 -0.000362899 -0.000363212 -0.000361655 -0.000362899 0.00709429 0.00704026 -0.000362899 -0.000363212 0.00704026 0.00707134 -4.7679e-05 0.00710703 -0.000117394 0.0311846 0.00710703 0.00709429 0.0311846 0.0312371 -0.000117394 0.0311846 0.000181509 0.0392899 0.0311846 0.0312371 0.0392899 0.0397682 0.00709429 0.00704026 0.0312371 0.0309817 0.00704026 0.00707134 0.0309817 0.0311194 0.0312371 0.0309817 0.0397682 0.0393449 0.0309817 0.0311194 0.0393449 0.0395441 -0.00372996 0.04319 -0.00297806 0.0346507 0.04319 0.0386084 0.0346507 0.0309945 -0.00297806 0.0346507 -0.000661002 0.00852119 0.0346507 0.0309945 0.00852119 0.0077192 0.0386084 0.0396593 0.0309945 0.0318307 0.0396593 0.0393759 0.0318307 0.0316061 0.0309945 0.0318307 0.0077192 0.00789011 0.0318307 0.0316061 0.00789011 0.00784891 -0.000661002 0.00852119 5.24054e-05 -0.000494748 0.00852119 0.0077192 -0.000494748 -0.000429247 5.24054e-05 -0.000494748 7.84863e-07 -0.000126827 -0.000494748 -0.000429247 -0.000126827 -0.000126951 0.0077192 0.00789011 -0.000429247 -0.000445733 0.00789011 0.00784891 -0.000445733 -0.000440777 -0.000429247 -0.000445733 -0.000126951 -0.000125539 -0.000445733 -0.000440777 -0.000125539 -0.000126383 -0.00246744 0.0414659 -0.00303612 0.0420421 0.0414659 0.0385633 0.0420421 0.0383862 -0.00303612 0.0420421 -0.00340627 0.0423793 0.0420421 0.0383862 0.0423793 0.038228 0.0385633 0.0390635 0.0383862 0.0391291 0.0390635 0.0389864 0.0391291 0.0389634 0.0383862 0.0391291 0.038228 0.0391374 0.0391291 0.0389634 0.0391374 0.038908 -0.00340627 0.0423793 -0.00361732 0.0426712 0.0423793 0.038228 0.0426712 0.038237 -0.00361732 0.0426712 -0.00372996 0.04319 0.0426712 0.038237 0.04319 0.0386084 0.038228 0.0391374 0.038237 0.0392423 0.0391374 0.038908 0.0392423 0.0389756 0.038237 0.0392423 0.0386084 0.0396593 0.0392423 0.0389756 0.0396593 0.0393759 
