# vtk DataFile Version 3.0
#This file was generated by the deal.II library on 2023/3/8 at 18:39:22
ASCII
DATASET UNSTRUCTURED_GRID

FIELD FieldData 2
CYCLE 1 1 int
52
TIME 1 1 double
0.104
POINTS 1024 double
2 0 0
1.84776 1.22465e-16 0.765367
2.07612 0.382683 0
1.91809 0.382683 0.794497
1.84776 1.22465e-16 0.765367
1.41421 1.22465e-16 1.41421
1.91809 0.382683 0.794497
1.46804 0.382683 1.46804
2.07612 0.382683 0
1.91809 0.382683 0.794497
2.29289 0.707107 0
2.11836 0.707107 0.877452
1.91809 0.382683 0.794497
1.46804 0.382683 1.46804
2.11836 0.707107 0.877452
1.62132 0.707107 1.62132
1.41421 1.22465e-16 1.41421
0.765367 1.22465e-16 1.84776
1.46804 0.382683 1.46804
0.794497 0.382683 1.91809
0.765367 1.22465e-16 1.84776
0 0 2
0.794497 0.382683 1.91809
1.27126e-16 0.382683 2.07612
1.46804 0.382683 1.46804
0.794497 0.382683 1.91809
1.62132 0.707107 1.62132
0.877452 0.707107 2.11836
0.794497 0.382683 1.91809
1.27126e-16 0.382683 2.07612
0.877452 0.707107 2.11836
1.40399e-16 0.707107 2.29289
2.29289 0.707107 0
2.11836 0.707107 0.877452
2.61732 0.92388 0
2.41809 0.92388 1.0016
2.11836 0.707107 0.877452
1.62132 0.707107 1.62132
2.41809 0.92388 1.0016
1.85072 0.92388 1.85072
2.61732 0.92388 0
2.41809 0.92388 1.0016
3 1 0
2.77164 1 1.14805
2.41809 0.92388 1.0016
1.85072 0.92388 1.85072
2.77164 1 1.14805
2.12132 1 2.12132
1.62132 0.707107 1.62132
0.877452 0.707107 2.11836
1.85072 0.92388 1.85072
1.0016 0.92388 2.41809
0.877452 0.707107 2.11836
1.40399e-16 0.707107 2.29289
1.0016 0.92388 2.41809
1.60264e-16 0.92388 2.61732
1.85072 0.92388 1.85072
1.0016 0.92388 2.41809
2.12132 1 2.12132
1.14805 1 2.77164
1.0016 0.92388 2.41809
1.60264e-16 0.92388 2.61732
1.14805 1 2.77164
0 1 3
3 -1 0
2.77164 -1 1.14805
2.61732 -0.92388 0
2.41809 -0.92388 1.0016
2.77164 -1 1.14805
2.12132 -1 2.12132
2.41809 -0.92388 1.0016
1.85072 -0.92388 1.85072
2.61732 -0.92388 0
2.41809 -0.92388 1.0016
2.29289 -0.707107 0
2.11836 -0.707107 0.877452
2.41809 -0.92388 1.0016
1.85072 -0.92388 1.85072
2.11836 -0.707107 0.877452
1.62132 -0.707107 1.62132
2.12132 -1 2.12132
1.14805 -1 2.77164
1.85072 -0.92388 1.85072
1.0016 -0.92388 2.41809
1.14805 -1 2.77164
0 -1 3
1.0016 -0.92388 2.41809
1.60264e-16 -0.92388 2.61732
1.85072 -0.92388 1.85072
1.0016 -0.92388 2.41809
1.62132 -0.707107 1.62132
0.877452 -0.707107 2.11836
1.0016 -0.92388 2.41809
1.60264e-16 -0.92388 2.61732
0.877452 -0.707107 2.11836
1.40399e-16 -0.707107 2.29289
2.29289 -0.707107 0
2.11836 -0.707107 0.877452
2.07612 -0.382683 0
1.91809 -0.382683 0.794497
2.11836 -0.707107 0.877452
1.62132 -0.707107 1.62132
1.91809 -0.382683 0.794497
1.46804 -0.382683 1.46804
2.07612 -0.382683 0
1.91809 -0.382683 0.794497
2 0 0
1.84776 1.22465e-16 0.765367
1.91809 -0.382683 0.794497
1.46804 -0.382683 1.46804
1.84776 1.22465e-16 0.765367
1.41421 1.22465e-16 1.41421
1.62132 -0.707107 1.62132
0.877452 -0.707107 2.11836
1.46804 -0.382683 1.46804
0.794497 -0.382683 1.91809
0.877452 -0.707107 2.11836
1.40399e-16 -0.707107 2.29289
0.794497 -0.382683 1.91809
1.27126e-16 -0.382683 2.07612
1.46804 -0.382683 1.46804
0.794497 -0.382683 1.91809
1.41421 1.22465e-16 1.41421
0.765367 1.22465e-16 1.84776
0.794497 -0.382683 1.91809
1.27126e-16 -0.382683 2.07612
0.765367 1.22465e-16 1.84776
0 0 2
4 0 0
3.69552 0 1.53073
3.92388 -0.382683 0
3.62519 -0.382683 1.5016
3.69552 0 1.53073
2.82843 0 2.82843
3.62519 -0.382683 1.5016
2.7746 -0.382683 2.7746
3.92388 -0.382683 0
3.62519 -0.382683 1.5016
3.70711 -0.707107 0
3.42492 -0.707107 1.41865
3.62519 -0.382683 1.5016
2.7746 -0.382683 2.7746
3.42492 -0.707107 1.41865
2.62132 -0.707107 2.62132
2.82843 0 2.82843
1.53073 0 3.69552
2.7746 -0.382683 2.7746
1.5016 -0.382683 3.62519
1.53073 0 3.69552
0 0 4
1.5016 -0.382683 3.62519
2.40268e-16 -0.382683 3.92388
2.7746 -0.382683 2.7746
1.5016 -0.382683 3.62519
2.62132 -0.707107 2.62132
1.41865 -0.707107 3.42492
1.5016 -0.382683 3.62519
2.40268e-16 -0.382683 3.92388
1.41865 -0.707107 3.42492
2.26995e-16 -0.707107 3.70711
3.70711 -0.707107 0
3.42492 -0.707107 1.41865
3.38268 -0.92388 0
3.12519 -0.92388 1.2945
3.42492 -0.707107 1.41865
2.62132 -0.707107 2.62132
3.12519 -0.92388 1.2945
2.39192 -0.92388 2.39192
3.38268 -0.92388 0
3.12519 -0.92388 1.2945
3 -1 0
2.77164 -1 1.14805
3.12519 -0.92388 1.2945
2.39192 -0.92388 2.39192
2.77164 -1 1.14805
2.12132 -1 2.12132
2.62132 -0.707107 2.62132
1.41865 -0.707107 3.42492
2.39192 -0.92388 2.39192
1.2945 -0.92388 3.12519
1.41865 -0.707107 3.42492
2.26995e-16 -0.707107 3.70711
1.2945 -0.92388 3.12519
2.0713e-16 -0.92388 3.38268
2.39192 -0.92388 2.39192
1.2945 -0.92388 3.12519
2.12132 -1 2.12132
1.14805 -1 2.77164
1.2945 -0.92388 3.12519
2.0713e-16 -0.92388 3.38268
1.14805 -1 2.77164
0 -1 3
3 1 0
2.77164 1 1.14805
3.38268 0.92388 0
3.12519 0.92388 1.2945
2.77164 1 1.14805
2.12132 1 2.12132
3.12519 0.92388 1.2945
2.39192 0.92388 2.39192
3.38268 0.92388 0
3.12519 0.92388 1.2945
3.70711 0.707107 0
3.42492 0.707107 1.41865
3.12519 0.92388 1.2945
2.39192 0.92388 2.39192
3.42492 0.707107 1.41865
2.62132 0.707107 2.62132
2.12132 1 2.12132
1.14805 1 2.77164
2.39192 0.92388 2.39192
1.2945 0.92388 3.12519
1.14805 1 2.77164
0 1 3
1.2945 0.92388 3.12519
2.0713e-16 0.92388 3.38268
2.39192 0.92388 2.39192
1.2945 0.92388 3.12519
2.62132 0.707107 2.62132
1.41865 0.707107 3.42492
1.2945 0.92388 3.12519
2.0713e-16 0.92388 3.38268
1.41865 0.707107 3.42492
2.26995e-16 0.707107 3.70711
3.70711 0.707107 0
3.42492 0.707107 1.41865
3.92388 0.382683 0
3.62519 0.382683 1.5016
3.42492 0.707107 1.41865
2.62132 0.707107 2.62132
3.62519 0.382683 1.5016
2.7746 0.382683 2.7746
3.92388 0.382683 0
3.62519 0.382683 1.5016
4 0 0
3.69552 0 1.53073
3.62519 0.382683 1.5016
2.7746 0.382683 2.7746
3.69552 0 1.53073
2.82843 0 2.82843
2.62132 0.707107 2.62132
1.41865 0.707107 3.42492
2.7746 0.382683 2.7746
1.5016 0.382683 3.62519
1.41865 0.707107 3.42492
2.26995e-16 0.707107 3.70711
1.5016 0.382683 3.62519
2.40268e-16 0.382683 3.92388
2.7746 0.382683 2.7746
1.5016 0.382683 3.62519
2.82843 0 2.82843
1.53073 0 3.69552
1.5016 0.382683 3.62519
2.40268e-16 0.382683 3.92388
1.53073 0 3.69552
0 0 4
0 0 2
-0.765367 1.22465e-16 1.84776
1.27126e-16 0.382683 2.07612
-0.794497 0.382683 1.91809
-0.765367 1.22465e-16 1.84776
-1.41421 1.22465e-16 1.41421
-0.794497 0.382683 1.91809
-1.46804 0.382683 1.46804
1.27126e-16 0.382683 2.07612
-0.794497 0.382683 1.91809
1.40399e-16 0.707107 2.29289
-0.877452 0.707107 2.11836
-0.794497 0.382683 1.91809
-1.46804 0.382683 1.46804
-0.877452 0.707107 2.11836
-1.62132 0.707107 1.62132
-1.41421 1.22465e-16 1.41421
-1.84776 1.22465e-16 0.765367
-1.46804 0.382683 1.46804
-1.91809 0.382683 0.794497
-1.84776 1.22465e-16 0.765367
-2 0 0
-1.91809 0.382683 0.794497
-2.07612 0.382683 2.54251e-16
-1.46804 0.382683 1.46804
-1.91809 0.382683 0.794497
-1.62132 0.707107 1.62132
-2.11836 0.707107 0.877452
-1.91809 0.382683 0.794497
-2.07612 0.382683 2.54251e-16
-2.11836 0.707107 0.877452
-2.29289 0.707107 2.80798e-16
1.40399e-16 0.707107 2.29289
-0.877452 0.707107 2.11836
1.60264e-16 0.92388 2.61732
-1.0016 0.92388 2.41809
-0.877452 0.707107 2.11836
-1.62132 0.707107 1.62132
-1.0016 0.92388 2.41809
-1.85072 0.92388 1.85072
1.60264e-16 0.92388 2.61732
-1.0016 0.92388 2.41809
0 1 3
-1.14805 1 2.77164
-1.0016 0.92388 2.41809
-1.85072 0.92388 1.85072
-1.14805 1 2.77164
-2.12132 1 2.12132
-1.62132 0.707107 1.62132
-2.11836 0.707107 0.877452
-1.85072 0.92388 1.85072
-2.41809 0.92388 1.0016
-2.11836 0.707107 0.877452
-2.29289 0.707107 2.80798e-16
-2.41809 0.92388 1.0016
-2.61732 0.92388 3.20529e-16
-1.85072 0.92388 1.85072
-2.41809 0.92388 1.0016
-2.12132 1 2.12132
-2.77164 1 1.14805
-2.41809 0.92388 1.0016
-2.61732 0.92388 3.20529e-16
-2.77164 1 1.14805
-3 1 0
0 -1 3
-1.14805 -1 2.77164
1.60264e-16 -0.92388 2.61732
-1.0016 -0.92388 2.41809
-1.14805 -1 2.77164
-2.12132 -1 2.12132
-1.0016 -0.92388 2.41809
-1.85072 -0.92388 1.85072
1.60264e-16 -0.92388 2.61732
-1.0016 -0.92388 2.41809
1.40399e-16 -0.707107 2.29289
-0.877452 -0.707107 2.11836
-1.0016 -0.92388 2.41809
-1.85072 -0.92388 1.85072
-0.877452 -0.707107 2.11836
-1.62132 -0.707107 1.62132
-2.12132 -1 2.12132
-2.77164 -1 1.14805
-1.85072 -0.92388 1.85072
-2.41809 -0.92388 1.0016
-2.77164 -1 1.14805
-3 -1 0
-2.41809 -0.92388 1.0016
-2.61732 -0.92388 3.20529e-16
-1.85072 -0.92388 1.85072
-2.41809 -0.92388 1.0016
-1.62132 -0.707107 1.62132
-2.11836 -0.707107 0.877452
-2.41809 -0.92388 1.0016
-2.61732 -0.92388 3.20529e-16
-2.11836 -0.707107 0.877452
-2.29289 -0.707107 2.80798e-16
1.40399e-16 -0.707107 2.29289
-0.877452 -0.707107 2.11836
1.27126e-16 -0.382683 2.07612
-0.794497 -0.382683 1.91809
-0.877452 -0.707107 2.11836
-1.62132 -0.707107 1.62132
-0.794497 -0.382683 1.91809
-1.46804 -0.382683 1.46804
1.27126e-16 -0.382683 2.07612
-0.794497 -0.382683 1.91809
0 0 2
-0.765367 1.22465e-16 1.84776
-0.794497 -0.382683 1.91809
-1.46804 -0.382683 1.46804
-0.765367 1.22465e-16 1.84776
-1.41421 1.22465e-16 1.41421
-1.62132 -0.707107 1.62132
-2.11836 -0.707107 0.877452
-1.46804 -0.382683 1.46804
-1.91809 -0.382683 0.794497
-2.11836 -0.707107 0.877452
-2.29289 -0.707107 2.80798e-16
-1.91809 -0.382683 0.794497
-2.07612 -0.382683 2.54251e-16
-1.46804 -0.382683 1.46804
-1.91809 -0.382683 0.794497
-1.41421 1.22465e-16 1.41421
-1.84776 1.22465e-16 0.765367
-1.91809 -0.382683 0.794497
-2.07612 -0.382683 2.54251e-16
-1.84776 1.22465e-16 0.765367
-2 0 0
0 0 4
-1.53073 0 3.69552
2.40268e-16 -0.382683 3.92388
-1.5016 -0.382683 3.62519
-1.53073 0 3.69552
-2.82843 0 2.82843
-1.5016 -0.382683 3.62519
-2.7746 -0.382683 2.7746
2.40268e-16 -0.382683 3.92388
-1.5016 -0.382683 3.62519
2.26995e-16 -0.707107 3.70711
-1.41865 -0.707107 3.42492
-1.5016 -0.382683 3.62519
-2.7746 -0.382683 2.7746
-1.41865 -0.707107 3.42492
-2.62132 -0.707107 2.62132
-2.82843 0 2.82843
-3.69552 0 1.53073
-2.7746 -0.382683 2.7746
-3.62519 -0.382683 1.5016
-3.69552 0 1.53073
-4 0 0
-3.62519 -0.382683 1.5016
-3.92388 -0.382683 4.80537e-16
-2.7746 -0.382683 2.7746
-3.62519 -0.382683 1.5016
-2.62132 -0.707107 2.62132
-3.42492 -0.707107 1.41865
[...]
POINT_DATA 1024
SCALARS U double 1
LOOKUP_TABLE default
0.0363458 0.036208 0.0386932 0.0385104 0.036208 0.0372425 0.0385104 0.0396394 0.0386932 0.0385104 0.0445498 0.0442777 0.0385104 0.0396394 0.0442777 0.0454499 0.0372425 0.0314257 0.0396394 0.0338068 0.0314257 0.0050036 0.0338068 0.00441277 0.0396394 0.0338068 0.0454499 0.040512 0.0338068 0.00441277 0.040512 0.00987774 0.0445498 0.0442777 0.0439963 0.0436868 0.0442777 0.0454499 0.0436868 0.0447019 0.0439963 0.0436868 0.0441343 0.0438462 0.0436868 0.0447019 0.0438462 0.0445915 0.0454499 0.040512 0.0447019 0.0413559 0.040512 0.00987774 0.0413559 0.00791501 0.0447019 0.0413559 0.0445915 0.0428485 0.0413559 0.00791501 0.0428485 0.00669951 -8.50412e-05 -8.51833e-05 0.00225172 0.0022364 -8.51833e-05 -8.47524e-05 0.0022364 0.00230239 0.00225172 0.0022364 0.0115051 0.0114418 0.0022364 0.00230239 0.0114418 0.0117773 -8.47524e-05 -8.61867e-05 0.00230239 0.00202924 -8.61867e-05 1.42946e-06 0.00202924 0.000217904 0.00230239 0.00202924 0.0117773 0.010179 0.00202924 0.000217904 0.010179 0.00131742 0.0115051 0.0114418 0.0259766 0.0258654 0.0114418 0.0117773 0.0258654 0.0266136 0.0259766 0.0258654 0.0363458 0.036208 0.0258654 0.0266136 0.036208 0.0372425 0.0117773 0.010179 0.0266136 0.0225911 0.010179 0.00131742 0.0225911 0.00335054 0.0266136 0.0225911 0.0372425 0.0314257 0.0225911 0.00335054 0.0314257 0.0050036 0.0366101 0.0365453 0.0270612 0.027007 0.0365453 0.0364607 0.027007 0.0269633 0.0270612 0.027007 0.0129068 0.0128696 0.027007 0.0269633 0.0128696 0.0128849 0.0364607 0.0379621 0.0269633 0.0280117 0.0379621 -0.00128868 0.0280117 -0.00100004 0.0269633 0.0280117 0.0128849 0.0132584 0.0280117 -0.00100004 0.0132584 -0.000363988 0.0129068 0.0128696 0.00287702 0.00286447 0.0128696 0.0128849 0.00286447 0.00288169 0.00287702 0.00286447 -8.50412e-05 -8.51833e-05 0.00286447 0.00288169 -8.51833e-05 -8.47524e-05 0.0128849 0.0132584 0.00288169 0.00291617 0.0132584 -0.000363988 0.00291617 -4.52562e-05 0.00288169 0.00291617 -8.47524e-05 -8.61867e-05 0.00291617 -4.52562e-05 -8.61867e-05 1.42946e-06 0.0441343 0.0438462 0.0439744 0.0437499 0.0438462 0.0445915 0.0437499 0.0441904 0.0439744 0.0437499 0.0445529 0.0443947 0.0437499 0.0441904 0.0443947 0.0445884 0.0445915 0.0428485 0.0441904 0.0438167 0.0428485 0.00669951 0.0438167 0.00544165 0.0441904 0.0438167 0.0445884 0.045176 0.0438167 0.00544165 0.045176 0.00524632 0.0445529 0.0443947 0.0387004 0.038614 0.0443947 0.0445884 0.038614 0.0385772 0.0387004 0.038614 0.0366101 0.0365453 0.038614 0.0385772 0.0365453 0.0364607 0.0445884 0.045176 0.0385772 0.0400002 0.045176 0.00524632 0.0400002 -0.00180001 0.0385772 0.0400002 0.0364607 0.0379621 0.0400002 -0.00180001 0.0379621 -0.00128868 0.0050036 -0.000922717 0.00441277 -0.000929195 -0.000922717 0.00012963 -0.000929195 0.000142112 0.00441277 -0.000929195 0.00987774 -0.00159105 -0.000929195 0.000142112 -0.00159105 0.000361023 0.00012963 -5.82345e-06 0.000142112 -9.67224e-06 -5.82345e-06 -6.73954e-06 -9.67224e-06 -5.38095e-06 0.000142112 -9.67224e-06 0.000361023 -7.85169e-05 -9.67224e-06 -5.38095e-06 -7.85169e-05 2.97611e-05 0.00987774 -0.00159105 0.00791501 -0.00137384 -0.00159105 0.000361023 -0.00137384 0.000357229 0.00791501 -0.00137384 0.00669951 -0.00115212 -0.00137384 0.000357229 -0.00115212 0.000336405 0.000361023 -7.85169e-05 0.000357229 -9.04316e-05 -7.85169e-05 2.97611e-05 -9.04316e-05 3.94341e-05 0.000357229 -9.04316e-05 0.000336405 -9.61166e-05 -9.04316e-05 3.94341e-05 -9.61166e-05 4.63651e-05 1.42946e-06 -3.66436e-07 0.000217904 -5.43974e-05 -3.66436e-07 1.07275e-07 -5.43974e-05 1.12603e-05 0.000217904 -5.43974e-05 0.00131742 -0.000285627 -5.43974e-05 1.12603e-05 -0.000285627 5.0448e-05 1.07275e-07 -2.73942e-08 1.12603e-05 -1.88813e-06 -2.73942e-08 8.36684e-09 -1.88813e-06 4.16314e-07 1.12603e-05 -1.88813e-06 5.0448e-05 -6.1023e-06 -1.88813e-06 4.16314e-07 -6.1023e-06 1.28853e-07 0.00131742 -0.000285627 0.00335054 -0.000650969 -0.000285627 5.0448e-05 -0.000650969 9.69354e-05 0.00335054 -0.000650969 0.0050036 -0.000922717 -0.000650969 9.69354e-05 -0.000922717 0.00012963 5.0448e-05 -6.1023e-06 9.69354e-05 -6.19291e-06 -6.1023e-06 1.28853e-07 -6.19291e-06 -3.78876e-06 9.69354e-05 -6.19291e-06 0.00012963 -5.82345e-06 -6.19291e-06 -3.78876e-06 -5.82345e-06 -6.73954e-06 -0.00128868 0.000105474 -0.00100004 7.40254e-05 0.000105474 2.66359e-05 7.40254e-05 2.08713e-05 -0.00100004 7.40254e-05 -0.000363988 5.42226e-06 7.40254e-05 2.08713e-05 5.42226e-06 1.77857e-05 2.66359e-05 -2.05401e-05 2.08713e-05 -1.54485e-05 -2.05401e-05 1.42602e-05 -1.54485e-05 1.06199e-05 2.08713e-05 -1.54485e-05 1.77857e-05 -9.35716e-06 -1.54485e-05 1.06199e-05 -9.35716e-06 5.92444e-06 -0.000363988 5.42226e-06 -4.52562e-05 -9.41147e-06 5.42226e-06 1.77857e-05 -9.41147e-06 6.71031e-06 -4.52562e-05 -9.41147e-06 1.42946e-06 -3.66436e-07 -9.41147e-06 6.71031e-06 -3.66436e-07 1.07275e-07 1.77857e-05 -9.35716e-06 6.71031e-06 -2.75917e-06 -9.35716e-06 5.92444e-06 -2.75917e-06 1.59719e-06 6.71031e-06 -2.75917e-06 1.07275e-07 -2.73942e-08 -2.75917e-06 1.59719e-06 -2.73942e-08 8.36684e-09 0.00669951 -0.00115212 0.00544165 -0.000886034 -0.00115212 0.000336405 -0.000886034 0.000285215 0.00544165 -0.000886034 0.00524632 -0.000754151 -0.000886034 0.000285215 -0.000754151 0.00025764 0.000336405 -9.61166e-05 0.000285215 -8.90649e-05 -9.61166e-05 4.63651e-05 -8.90649e-05 4.58912e-05 0.000285215 -8.90649e-05 0.00025764 -8.49602e-05 -8.90649e-05 4.58912e-05 -8.49602e-05 4.5542e-05 0.00524632 -0.000754151 -0.00180001 0.000133836 -0.000754151 0.00025764 0.000133836 2.28208e-05 -0.00180001 0.000133836 -0.00128868 0.000105474 0.000133836 2.28208e-05 0.000105474 2.66359e-05 0.00025764 -8.49602e-05 2.28208e-05 -2.00345e-05 -8.49602e-05 4.5542e-05 -2.00345e-05 1.40941e-05 2.28208e-05 -2.00345e-05 2.66359e-05 -2.05401e-05 -2.00345e-05 1.40941e-05 -2.05401e-05 1.42602e-05 -6.73954e-06 -5.82371e-06 -5.38095e-06 -9.67121e-06 -5.82371e-06 0.000129629 -9.67121e-06 0.000142109 -5.38095e-06 -9.67121e-06 2.97611e-05 -7.85173e-05 -9.67121e-06 0.000142109 -7.85173e-05 0.00036102 0.000129629 -0.000922713 0.000142109 -0.000929195 -0.000922713 0.0050036 -0.000929195 0.00441277 0.000142109 -0.000929195 0.00036102 -0.00159105 -0.000929195 0.00441277 -0.00159105 0.00987774 2.97611e-05 -7.85173e-05 3.94341e-05 -9.04329e-05 -7.85173e-05 0.00036102 -9.04329e-05 0.000357231 3.94341e-05 -9.04329e-05 4.63651e-05 -9.61157e-05 -9.04329e-05 0.000357231 -9.61157e-05 0.000336407 0.00036102 -0.00159105 0.000357231 -0.00137384 -0.00159105 0.00987774 -0.00137384 0.00791501 0.000357231 -0.00137384 0.000336407 -0.00115212 -0.00137384 0.00791501 -0.00115212 0.0066995 8.36684e-09 -2.5628e-08 4.16314e-07 -1.88629e-06 -2.5628e-08 1.07196e-07 -1.88629e-06 1.12607e-05 4.16314e-07 -1.88629e-06 1.28853e-07 -6.10348e-06 -1.88629e-06 1.12607e-05 -6.10348e-06 5.04497e-05 1.07196e-07 -3.65579e-07 1.12607e-05 -5.43931e-05 -3.65579e-07 1.43091e-06 -5.43931e-05 0.000217904 1.12607e-05 -5.43931e-05 5.04497e-05 -0.000285625 -5.43931e-05 0.000217904 -0.000285625 0.00131742 1.28853e-07 -6.10348e-06 -3.78876e-06 -6.19353e-06 -6.10348e-06 5.04497e-05 -6.19353e-06 9.69339e-05 -3.78876e-06 -6.19353e-06 -6.73954e-06 -5.82371e-06 -6.19353e-06 9.69339e-05 -5.82371e-06 0.000129629 5.04497e-05 -0.000285625 9.69339e-05 -0.000650966 -0.000285625 0.00131742 -0.000650966 0.00335053 9.69339e-05 -0.000650966 0.000129629 -0.000922713 -0.000650966 0.00335053 -0.000922713 0.0050036 1.42602e-05 -2.05413e-05 1.06199e-05 -1.54481e-05 -2.05413e-05 2.66397e-05 -1.54481e-05 2.08739e-05 1.06199e-05 -1.54481e-05 5.92444e-06 -9.35799e-06 -1.54481e-05 2.08739e-05 -9.35799e-06 1.77882e-05 2.66397e-05 0.00010547 2.08739e-05 7.40218e-05 0.00010547 -0.00128868 7.40218e-05 -0.00100003 2.08739e-05 7.40218e-05 1.77882e-05 5.42041e-06 7.40218e-05 -0.00100003 5.42041e-06 -0.000363988 5.92444e-06 -9.35799e-06 1.59719e-06 -2.75911e-06 -9.35799e-06 1.77882e-05 -2.75911e-06 6.71002e-06 1.59719e-06 -2.75911e-06 8.36684e-09 -2.5628e-08 -2.75911e-06 6.71002e-06 -2.5628e-08 1.07196e-07 1.77882e-05 5.42041e-06 6.71002e-06 -9.4107e-06 5.42041e-06 -0.000363988 -9.4107e-06 -4.52573e-05 6.71002e-06 -9.4107e-06 1.07196e-07 -3.65579e-07 -9.4107e-06 -4.52573e-05 -3.65579e-07 1.43091e-06 4.63651e-05 -9.61157e-05 4.58912e-05 -8.90657e-05 -9.61157e-05 0.000336407 -8.90657e-05 0.000285218 4.58912e-05 -8.90657e-05 4.5542e-05 -8.49617e-05 -8.90657e-05 0.000285218 -8.49617e-05 0.000257645 0.000336407 -0.00115212 0.000285218 -0.000886038 -0.00115212 0.0066995 -0.000886038 0.00544164 0.000285218 -0.000886038 0.000257645 -0.000754152 -0.000886038 0.00544164 -0.000754152 0.00524632 4.5542e-05 -8.49617e-05 1.40941e-05 -2.00355e-05 -8.49617e-05 0.000257645 -2.00355e-05 2.28256e-05 1.40941e-05 -2.00355e-05 1.42602e-05 -2.05413e-05 -2.00355e-05 2.28256e-05 -2.05413e-05 2.66397e-05 0.000257645 -0.000754152 2.28256e-05 0.000133832 -0.000754152 0.00524632 0.000133832 -0.00180002 2.28256e-05 0.000133832 2.66397e-05 0.00010547 0.000133832 -0.00180002 0.00010547 -0.00128868 0.0050036 0.0314257 0.00441277 0.0338068 0.0314257 0.0372425 0.0338068 0.0396394 0.00441277 0.0338068 0.00987774 0.040512 0.0338068 0.0396394 0.040512 0.0454499 0.0372425 0.036208 0.0396394 0.0385104 0.036208 0.0363458 0.0385104 0.0386932 0.0396394 0.0385104 0.0454499 0.0442777 0.0385104 0.0386932 0.0442777 0.0445498 0.00987774 0.040512 0.00791501 0.0413559 0.040512 0.0454499 0.0413559 0.0447019 0.00791501 0.0413559 0.0066995 0.0428485 0.0413559 0.0447019 0.0428485 0.0445915 0.0454499 0.0442777 0.0447019 0.0436868 0.0442777 0.0445498 0.0436868 0.0439963 0.0447019 0.0436868 0.0445915 0.0438462 0.0436868 0.0439963 0.0438462 0.0441343 1.43091e-06 -8.61823e-05 0.000217904 0.00202924 -8.61823e-05 -8.47533e-05 0.00202924 0.00230239 0.000217904 0.00202924 0.00131742 0.010179 0.00202924 0.00230239 0.010179 0.0117773 -8.47533e-05 -8.51891e-05 0.00230239 0.00223639 -8.51891e-05 -8.50412e-05 0.00223639 0.00225172 0.00230239 0.00223639 0.0117773 0.0114418 0.00223639 0.00225172 0.0114418 0.0115051 0.00131742 0.010179 0.00335053 0.0225911 0.010179 0.0117773 0.0225911 0.0266136 0.00335053 0.0225911 0.0050036 0.0314257 0.0225911 0.0266136 0.0314257 0.0372425 0.0117773 0.0114418 0.0266136 0.0258654 0.0114418 0.0115051 0.0258654 0.0259766 0.0266136 0.0258654 0.0372425 0.036208 0.0258654 0.0259766 0.036208 0.0363458 -0.00128868 0.0379621 -0.00100003 0.0280117 0.0379621 0.0364607 0.0280117 0.0269633 -0.00100003 0.0280117 -0.000363988 0.0132584 0.0280117 0.0269633 0.0132584 0.0128849 0.0364607 0.0365453 0.0269633 0.027007 0.0365453 0.0366101 0.027007 0.0270612 0.0269633 0.027007 0.0128849 0.0128696 0.027007 0.0270612 0.0128696 0.0129068 -0.000363988 0.0132584 -4.52573e-05 0.00291618 0.0132584 0.0128849 0.00291618 0.00288169 -4.52573e-05 0.00291618 1.43091e-06 -8.61823e-05 0.00291618 0.00288169 -8.61823e-05 -8.47533e-05 0.0128849 0.0128696 0.00288169 0.00286447 0.0128696 0.0129068 0.00286447 0.00287702 0.00288169 0.00286447 -8.47533e-05 -8.51891e-05 0.00286447 0.00287702 -8.51891e-05 -8.50412e-05 0.0066995 0.0428485 0.00544164 0.0438167 0.0428485 0.0445915 0.0438167 0.0441904 0.00544164 0.0438167 0.00524632 0.045176 0.0438167 0.0441904 0.045176 0.0445884 0.0445915 0.0438462 0.0441904 0.0437499 0.0438462 0.0441343 0.0437499 0.0439744 0.0441904 0.0437499 0.0445884 0.0443947 0.0437499 0.0439744 0.0443947 0.0445529 0.00524632 0.045176 -0.00180002 0.0400002 0.045176 0.0445884 0.0400002 0.0385772 -0.00180002 0.0400002 -0.00128868 0.0379621 0.0400002 0.0385772 0.0379621 0.0364607 0.0445884 0.0443947 0.0385772 0.038614 0.0443947 0.0445529 0.038614 0.0387004 0.0385772 0.038614 0.0364607 0.0365453 0.038614 0.0387004 0.0365453 0.0366101 
