# vtk DataFile Version 3.0
#This file was generated by the deal.II library on 2023/3/9 at 14:21:07
ASCII
DATASET UNSTRUCTURED_GRID

FIELD FieldData 2
CYCLE 1 1 int
41
TIME 1 1 double
0.082
POINTS 64 double
2 0 0
0 0 2
3 1 0
0 1 3
3 -1 0
0 -1 3
2 0 0
0 0 2
4 0 0
0 0 4
3 -1 0
0 -1 3
3 1 0
0 1 3
4 0 0
0 0 4
0 0 2
-2 0 0
0 1 3
-3 1 0
0 -1 3
-3 -1 0
0 0 2
-2 0 0
0 0 4
-4 0 0
0 -1 3
-3 -1 0
0 1 3
-3 1 0
0 0 4
-4 0 0
-2 0 0
0 0 -2
-3 1 0
0 1 -3
-3 -1 0
0 -1 -3
-2 0 0
0 0 -2
-4 0 0
0 0 -4
-3 -1 0
0 -1 -3
-3 1 0
0 1 -3
-4 0 0
0 0 -4
0 0 -2
2 0 0
0 1 -3
3 1 0
0 -1 -3
3 -1 0
0 0 -2
2 0 0
0 0 -4
4 0 0
0 -1 -3
3 -1 0
0 1 -3
3 1 0
0 0 -4
4 0 0

CELLS 16 80
4	0	1	3	2
4	4	5	7	6
4	8	9	11	10
4	12	13	15	14
4	16	17	19	18
4	20	21	23	22
4	24	25	27	26
4	28	29	31	30
4	32	33	35	34
4	36	37	39	38
4	40	41	43	42
4	44	45	47	46
4	48	49	51	50
4	52	53	55	54
4	56	57	59	58
4	60	61	63	62

CELL_TYPES 16
 9 9 9 9 9 9 9 9 9 9 9 9 9 9 9 9
POINT_DATA 64
SCALARS U double 1
LOOKUP_TABLE default
-46.6254 28.3766 24.6271 27.9173 24.6271 27.9173 -46.6254 28.3766 16.8311 27.3747 24.6271 27.9173 24.6271 27.9173 16.8311 27.3747 28.3766 32.2877 27.9173 -38.838 27.9173 -38.838 28.3766 32.2877 27.3747 -30.9042 27.9173 -38.838 27.9173 -38.838 27.3747 -30.9042 32.2877 28.3766 -38.838 27.9173 -38.838 27.9173 32.2877 28.3766 -30.9042 27.3747 -38.838 27.9173 -38.838 27.9173 -30.9042 27.3747 28.3766 -46.6254 27.9173 24.6271 27.9173 24.6271 28.3766 -46.6254 27.3747 16.8311 27.9173 24.6271 27.9173 24.6271 27.3747 16.8311 
