# vtk DataFile Version 3.0
#This file was generated by the deal.II library on 2023/3/9 at 5:31:13
ASCII
DATASET UNSTRUCTURED_GRID

FIELD FieldData 2
CYCLE 1 1 int
51
TIME 1 1 double
0.102
POINTS 16384 double
2 0 0
1.99037 1.22465e-16 0.196034
2.00482 0.0980171 0
1.99516 0.0980171 0.196506
1.99037 1.22465e-16 0.196034
1.96157 1.22465e-16 0.390181
1.99516 0.0980171 0.196506
1.96629 0.0980171 0.39112
2.00482 0.0980171 0
1.99516 0.0980171 0.196506
2.01921 0.19509 0
2.00949 0.19509 0.197918
1.99516 0.0980171 0.196506
1.96629 0.0980171 0.39112
2.00949 0.19509 0.197918
1.98042 0.19509 0.393929
1.96157 1.22465e-16 0.390181
1.91388 1.22465e-16 0.580569
1.96629 0.0980171 0.39112
1.91849 0.0980171 0.581967
1.91388 1.22465e-16 0.580569
1.84776 1.22465e-16 0.765367
1.91849 0.0980171 0.581967
1.85221 0.0980171 0.76721
1.96629 0.0980171 0.39112
1.91849 0.0980171 0.581967
1.98042 0.19509 0.393929
1.93227 0.19509 0.586147
1.91849 0.0980171 0.581967
1.85221 0.0980171 0.76721
1.93227 0.19509 0.586147
1.86551 0.19509 0.77272
2.01921 0.19509 0
2.00949 0.19509 0.197918
2.04306 0.290285 0
2.03322 0.290285 0.200255
2.00949 0.19509 0.197918
1.98042 0.19509 0.393929
2.03322 0.290285 0.200255
2.0038 0.290285 0.398581
2.04306 0.290285 0
2.03322 0.290285 0.200255
2.07612 0.382683 0
2.06612 0.382683 0.203495
2.03322 0.290285 0.200255
2.0038 0.290285 0.398581
2.06612 0.382683 0.203495
2.03623 0.382683 0.405031
1.98042 0.19509 0.393929
1.93227 0.19509 0.586147
2.0038 0.290285 0.398581
1.95509 0.290285 0.593069
1.93227 0.19509 0.586147
1.86551 0.19509 0.77272
1.95509 0.290285 0.593069
1.88754 0.290285 0.781845
2.0038 0.290285 0.398581
1.95509 0.290285 0.593069
2.03623 0.382683 0.405031
1.98672 0.382683 0.602666
1.95509 0.290285 0.593069
1.88754 0.290285 0.781845
1.98672 0.382683 0.602666
1.91809 0.382683 0.794497
1.84776 1.22465e-16 0.765367
1.76384 1.22465e-16 0.942793
1.85221 0.0980171 0.76721
1.76809 0.0980171 0.945063
1.76384 1.22465e-16 0.942793
1.66294 1.22465e-16 1.11114
1.76809 0.0980171 0.945063
1.66694 0.0980171 1.11382
1.85221 0.0980171 0.76721
1.76809 0.0980171 0.945063
1.86551 0.19509 0.77272
1.78079 0.19509 0.951851
1.76809 0.0980171 0.945063
1.66694 0.0980171 1.11382
1.78079 0.19509 0.951851
1.67892 0.19509 1.12182
1.66294 1.22465e-16 1.11114
1.54602 1.22465e-16 1.26879
1.66694 0.0980171 1.11382
1.54974 0.0980171 1.27184
1.54602 1.22465e-16 1.26879
1.41421 1.22465e-16 1.41421
1.54974 0.0980171 1.27184
1.41762 0.0980171 1.41762
1.66694 0.0980171 1.11382
1.54974 0.0980171 1.27184
1.67892 0.19509 1.12182
1.56087 0.19509 1.28098
1.54974 0.0980171 1.27184
1.41762 0.0980171 1.41762
1.56087 0.19509 1.28098
1.4278 0.19509 1.4278
1.86551 0.19509 0.77272
1.78079 0.19509 0.951851
1.88754 0.290285 0.781845
1.80182 0.290285 0.963092
1.78079 0.19509 0.951851
1.67892 0.19509 1.12182
1.80182 0.290285 0.963092
1.69874 0.290285 1.13506
1.88754 0.290285 0.781845
1.80182 0.290285 0.963092
1.91809 0.382683 0.794497
1.83097 0.382683 0.978676
1.80182 0.290285 0.963092
1.69874 0.290285 1.13506
1.83097 0.382683 0.978676
1.72623 0.382683 1.15343
1.67892 0.19509 1.12182
1.56087 0.19509 1.28098
1.69874 0.290285 1.13506
1.57931 0.290285 1.2961
1.56087 0.19509 1.28098
1.4278 0.19509 1.4278
1.57931 0.290285 1.2961
1.44466 0.290285 1.44466
1.69874 0.290285 1.13506
1.57931 0.290285 1.2961
1.72623 0.382683 1.15343
1.60486 0.382683 1.31708
1.57931 0.290285 1.2961
1.44466 0.290285 1.44466
1.60486 0.382683 1.31708
1.46804 0.382683 1.46804
2.07612 0.382683 0
2.06612 0.382683 0.203495
2.11808 0.471397 0
2.10788 0.471397 0.207608
2.06612 0.382683 0.203495
2.03623 0.382683 0.405031
2.10788 0.471397 0.207608
2.07738 0.471397 0.413217
2.11808 0.471397 0
2.10788 0.471397 0.207608
2.16853 0.55557 0
2.15809 0.55557 0.212553
2.10788 0.471397 0.207608
2.07738 0.471397 0.413217
2.15809 0.55557 0.212553
2.12686 0.55557 0.423059
2.03623 0.382683 0.405031
1.98672 0.382683 0.602666
2.07738 0.471397 0.413217
2.02687 0.471397 0.614846
1.98672 0.382683 0.602666
1.91809 0.382683 0.794497
2.02687 0.471397 0.614846
1.95685 0.471397 0.810554
2.07738 0.471397 0.413217
2.02687 0.471397 0.614846
2.12686 0.55557 0.423059
2.07515 0.55557 0.629491
2.02687 0.471397 0.614846
1.95685 0.471397 0.810554
2.07515 0.55557 0.629491
2.00346 0.55557 0.829861
2.16853 0.55557 0
2.15809 0.55557 0.212553
2.22699 0.634393 0
2.21627 0.634393 0.218283
2.15809 0.55557 0.212553
2.12686 0.55557 0.423059
2.21627 0.634393 0.218283
2.1842 0.634393 0.434464
2.22699 0.634393 0
2.21627 0.634393 0.218283
2.29289 0.707107 0
2.28185 0.707107 0.224743
2.21627 0.634393 0.218283
2.1842 0.634393 0.434464
2.28185 0.707107 0.224743
2.24884 0.707107 0.447321
2.12686 0.55557 0.423059
2.07515 0.55557 0.629491
2.1842 0.634393 0.434464
2.1311 0.634393 0.646461
2.07515 0.55557 0.629491
2.00346 0.55557 0.829861
2.1311 0.634393 0.646461
2.05747 0.634393 0.852232
2.1842 0.634393 0.434464
2.1311 0.634393 0.646461
2.24884 0.707107 0.447321
2.19416 0.707107 0.665592
2.1311 0.634393 0.646461
2.05747 0.634393 0.852232
2.19416 0.707107 0.665592
2.11836 0.707107 0.877452
1.91809 0.382683 0.794497
1.83097 0.382683 0.978676
1.95685 0.471397 0.810554
1.86798 0.471397 0.998455
1.83097 0.382683 0.978676
1.72623 0.382683 1.15343
1.86798 0.471397 0.998455
1.76112 0.471397 1.17674
1.95685 0.471397 0.810554
1.86798 0.471397 0.998455
2.00346 0.55557 0.829861
1.91247 0.55557 1.02224
1.86798 0.471397 0.998455
1.76112 0.471397 1.17674
1.91247 0.55557 1.02224
1.80307 0.55557 1.20477
1.72623 0.382683 1.15343
1.60486 0.382683 1.31708
1.76112 0.471397 1.17674
1.6373 0.471397 1.34369
1.60486 0.382683 1.31708
1.46804 0.382683 1.46804
1.6373 0.471397 1.34369
1.49771 0.471397 1.49771
1.76112 0.471397 1.17674
1.6373 0.471397 1.34369
1.80307 0.55557 1.20477
1.6763 0.55557 1.3757
1.6373 0.471397 1.34369
1.49771 0.471397 1.49771
1.6763 0.55557 1.3757
1.53338 0.55557 1.53338
2.00346 0.55557 0.829861
1.91247 0.55557 1.02224
2.05747 0.634393 0.852232
1.96403 0.634393 1.0498
1.91247 0.55557 1.02224
1.80307 0.55557 1.20477
1.96403 0.634393 1.0498
1.85167 0.634393 1.23725
2.05747 0.634393 0.852232
1.96403 0.634393 1.0498
2.11836 0.707107 0.877452
2.02215 0.707107 1.08086
1.96403 0.634393 1.0498
1.85167 0.634393 1.23725
2.02215 0.707107 1.08086
1.90647 0.707107 1.27386
1.80307 0.55557 1.20477
1.6763 0.55557 1.3757
1.85167 0.634393 1.23725
1.72149 0.634393 1.41279
1.6763 0.55557 1.3757
1.53338 0.55557 1.53338
1.72149 0.634393 1.41279
1.57472 0.634393 1.57472
1.85167 0.634393 1.23725
1.72149 0.634393 1.41279
1.90647 0.707107 1.27386
1.77243 0.707107 1.4546
1.72149 0.634393 1.41279
1.57472 0.634393 1.57472
1.77243 0.707107 1.4546
1.62132 0.707107 1.62132
1.41421 1.22465e-16 1.41421
1.26879 1.22465e-16 1.54602
1.41762 0.0980171 1.41762
1.27184 0.0980171 1.54974
1.26879 1.22465e-16 1.54602
1.11114 1.22465e-16 1.66294
1.27184 0.0980171 1.54974
1.11382 0.0980171 1.66694
1.41762 0.0980171 1.41762
1.27184 0.0980171 1.54974
1.4278 0.19509 1.4278
1.28098 0.19509 1.56087
1.27184 0.0980171 1.54974
1.11382 0.0980171 1.66694
1.28098 0.19509 1.56087
1.12182 0.19509 1.67892
1.11114 1.22465e-16 1.66294
0.942793 1.22465e-16 1.76384
1.11382 0.0980171 1.66694
0.945063 0.0980171 1.76809
0.942793 1.22465e-16 1.76384
0.765367 1.22465e-16 1.84776
0.945063 0.0980171 1.76809
0.76721 0.0980171 1.85221
1.11382 0.0980171 1.66694
0.945063 0.0980171 1.76809
1.12182 0.19509 1.67892
0.951851 0.19509 1.78079
0.945063 0.0980171 1.76809
0.76721 0.0980171 1.85221
0.951851 0.19509 1.78079
0.77272 0.19509 1.86551
1.4278 0.19509 1.4278
1.28098 0.19509 1.56087
1.44466 0.290285 1.44466
1.2961 0.290285 1.57931
1.28098 0.19509 1.56087
1.12182 0.19509 1.67892
1.2961 0.290285 1.57931
1.13506 0.290285 1.69874
1.44466 0.290285 1.44466
1.2961 0.290285 1.57931
1.46804 0.382683 1.46804
1.31708 0.382683 1.60486
1.2961 0.290285 1.57931
1.13506 0.290285 1.69874
1.31708 0.382683 1.60486
1.15343 0.382683 1.72623
1.12182 0.19509 1.67892
0.951851 0.19509 1.78079
1.13506 0.290285 1.69874
0.963092 0.290285 1.80182
0.951851 0.19509 1.78079
0.77272 0.19509 1.86551
0.963092 0.290285 1.80182
0.781845 0.290285 1.88754
1.13506 0.290285 1.69874
0.963092 0.290285 1.80182
1.15343 0.382683 1.72623
0.978676 0.382683 1.83097
0.963092 0.290285 1.80182
0.781845 0.290285 1.88754
0.978676 0.382683 1.83097
0.794497 0.382683 1.91809
0.765367 1.22465e-16 1.84776
0.580569 1.22465e-16 1.91388
0.76721 0.0980171 1.85221
0.581967 0.0980171 1.91849
0.580569 1.22465e-16 1.91388
0.390181 1.22465e-16 1.96157
0.581967 0.0980171 1.91849
0.39112 0.0980171 1.96629
0.76721 0.0980171 1.85221
0.581967 0.0980171 1.91849
0.77272 0.19509 1.86551
0.586147 0.19509 1.93227
0.581967 0.0980171 1.91849
0.39112 0.0980171 1.96629
0.586147 0.19509 1.93227
0.393929 0.19509 1.98042
0.390181 1.22465e-16 1.96157
0.196034 1.22465e-16 1.99037
0.39112 0.0980171 1.96629
0.196506 0.0980171 1.99516
0.196034 1.22465e-16 1.99037
0 0 2
0.196506 0.0980171 1.99516
1.2276e-16 0.0980171 2.00482
0.39112 0.0980171 1.96629
0.196506 0.0980171 1.99516
0.393929 0.19509 1.98042
0.197918 0.19509 2.00949
0.196506 0.0980171 1.99516
1.2276e-16 0.0980171 2.00482
0.197918 0.19509 2.00949
1.23641e-16 0.19509 2.01921
0.77272 0.19509 1.86551
0.586147 0.19509 1.93227
0.781845 0.290285 1.88754
0.593069 0.290285 1.95509
0.586147 0.19509 1.93227
0.393929 0.19509 1.98042
0.593069 0.290285 1.95509
0.398581 0.290285 2.0038
0.781845 0.290285 1.88754
0.593069 0.290285 1.95509
0.794497 0.382683 1.91809
0.602666 0.382683 1.98672
0.593069 0.290285 1.95509
0.398581 0.290285 2.0038
0.602666 0.382683 1.98672
0.405031 0.382683 2.03623
0.393929 0.19509 1.98042
0.197918 0.19509 2.00949
0.398581 0.290285 2.0038
0.200255 0.290285 2.03322
0.197918 0.19509 2.00949
1.23641e-16 0.19509 2.01921
0.200255 0.290285 2.03322
1.25101e-16 0.290285 2.04306
0.398581 0.290285 2.0038
0.200255 0.290285 2.03322
0.405031 0.382683 2.03623
0.203495 0.382683 2.06612
0.200255 0.290285 2.03322
1.25101e-16 0.290285 2.04306
0.203495 0.382683 2.06612
1.27126e-16 0.382683 2.07612
1.46804 0.382683 1.46804
1.31708 0.382683 1.60486
1.49771 0.471397 1.49771
[...]
POINT_DATA 16384
SCALARS U double 1
LOOKUP_TABLE default
1.92573 1.73283 4.42514 4.00894 1.73283 1.25505 4.00894 2.94271 4.42514 4.00894 13.406 12.4991 4.00894 2.94271 12.4991 9.86992 1.25505 0.718167 2.94271 1.69298 0.718167 0.313 1.69298 0.725788 2.94271 1.69298 9.86992 6.12345 1.69298 0.725788 6.12345 2.70021 13.406 12.4991 23.7981 23.336 12.4991 9.86992 23.336 21.3672 23.7981 23.336 23.345 23.5828 23.336 21.3672 23.5828 24.3658 9.86992 6.12345 21.3672 16.4309 6.12345 2.70021 16.4309 8.62686 21.3672 16.4309 24.3658 24.9978 16.4309 8.62686 24.9978 19.648 0.313 0.0964816 0.725788 0.210486 0.0964816 0.0171091 0.210486 0.0307366 0.725788 0.210486 2.70021 0.743299 0.210486 0.0307366 0.743299 0.0765874 0.0171091 -2.1915e-05 0.0307366 -0.00247722 -2.1915e-05 -0.000696184 -0.00247722 -0.00157331 0.0307366 -0.00247722 0.0765874 -0.0194474 -0.00247722 -0.00157331 -0.0194474 -0.00525486 2.70021 0.743299 8.62686 2.3875 0.743299 0.0765874 2.3875 0.133672 8.62686 2.3875 19.648 6.55238 2.3875 0.133672 6.55238 -0.0748376 0.0765874 -0.0194474 0.133672 -0.101009 -0.0194474 -0.00525486 -0.101009 -0.0126217 0.133672 -0.101009 -0.0748376 -0.414659 -0.101009 -0.0126217 -0.414659 -0.00437182 23.345 23.5828 21.9727 21.9759 23.5828 24.3658 21.9759 22.145 21.9727 21.9759 22.6653 22.6063 21.9759 22.145 22.6063 22.5747 24.3658 24.9978 22.145 22.7078 24.9978 19.648 22.7078 25.9596 22.145 22.7078 22.5747 21.7112 22.7078 25.9596 21.7112 23.1022 22.6653 22.6063 22.7199 22.7128 22.6063 22.5747 22.7128 22.8165 22.7199 22.7128 22.6183 22.5503 22.7128 22.8165 22.5503 22.7273 22.5747 21.7112 22.8165 22.7266 21.7112 23.1022 22.7266 21.6411 22.8165 22.7266 22.7273 22.2232 22.7266 21.6411 22.2232 24.3048 19.648 6.55238 25.9596 14.7188 6.55238 -0.0748376 14.7188 -1.93494 25.9596 14.7188 23.1022 23.6575 14.7188 -1.93494 23.6575 -8.93553 -0.0748376 -0.414659 -1.93494 -1.3328 -0.414659 -0.00437182 -1.3328 0.149564 -1.93494 -1.3328 -8.93553 -3.14552 -1.3328 0.149564 -3.14552 0.964723 23.1022 23.6575 21.6411 27.9457 23.6575 -8.93553 27.9457 -23.8209 21.6411 27.9457 24.3048 14.2872 27.9457 -23.8209 14.2872 -32.918 -8.93553 -3.14552 -23.8209 -3.77889 -3.14552 0.964723 -3.77889 3.57011 -23.8209 -3.77889 -32.918 2.3283 -3.77889 3.57011 2.3283 9.38931 -0.000696184 -5.41363e-05 -0.00157331 2.22997e-05 -5.41363e-05 3.07733e-05 2.22997e-05 7.55267e-05 -0.00157331 2.22997e-05 -0.00525486 0.000796245 2.22997e-05 7.55267e-05 0.000796245 0.000243084 3.07733e-05 2.17009e-06 7.55267e-05 -4.34713e-06 2.17009e-06 -1.71519e-06 -4.34713e-06 -3.56695e-06 7.55267e-05 -4.34713e-06 0.000243084 -5.82568e-05 -4.34713e-06 -3.56695e-06 -5.82568e-05 -6.73401e-06 -0.00525486 0.000796245 -0.0126217 0.00522383 0.000796245 0.000243084 0.00522383 0.000373368 -0.0126217 0.00522383 -0.00437182 0.0227335 0.00522383 0.000373368 0.0227335 -0.00161203 0.000243084 -5.82568e-05 0.000373368 -0.000313094 -5.82568e-05 -6.73401e-06 -0.000313094 2.03098e-05 0.000373368 -0.000313094 -0.00161203 -0.00105448 -0.000313094 2.03098e-05 -0.00105448 0.000251265 -1.71519e-06 4.65696e-08 -3.56695e-06 6.40478e-07 4.65696e-08 8.75488e-08 6.40478e-07 1.0041e-07 -3.56695e-06 6.40478e-07 -6.73401e-06 4.0778e-06 6.40478e-07 1.0041e-07 4.0778e-06 -3.15814e-07 8.75488e-08 -1.74633e-08 1.0041e-07 -5.50017e-08 -1.74633e-08 6.1282e-12 -5.50017e-08 6.43257e-11 1.0041e-07 -5.50017e-08 -3.15814e-07 -1.65344e-07 -5.50017e-08 6.43257e-11 -1.65344e-07 5.23144e-10 -6.73401e-06 4.0778e-06 2.03098e-05 1.38753e-05 4.0778e-06 -3.15814e-07 1.38753e-05 -3.77835e-06 2.03098e-05 1.38753e-05 0.000251265 1.22852e-05 1.38753e-05 -3.77835e-06 1.22852e-05 -1.6715e-05 -3.15814e-07 -1.65344e-07 -3.77835e-06 7.22031e-08 -1.65344e-07 5.23144e-10 7.22031e-08 3.60637e-10 -3.77835e-06 7.22031e-08 -1.6715e-05 3.32452e-06 7.22031e-08 3.60637e-10 3.32452e-06 -5.90496e-09 -0.00437182 0.0227335 0.149564 0.0697049 0.0227335 -0.00161203 0.0697049 -0.016325 0.149564 0.0697049 0.964723 0.115402 0.0697049 -0.016325 0.115402 -0.0746851 -0.00161203 -0.00105448 -0.016325 -0.001553 -0.00105448 0.000251265 -0.001553 0.00118678 -0.016325 -0.001553 -0.0746851 0.00556943 -0.001553 0.00118678 0.00556943 0.00337028 0.964723 0.115402 3.57011 -0.126256 0.115402 -0.0746851 -0.126256 -0.232528 3.57011 -0.126256 9.38931 -1.89534 -0.126256 -0.232528 -1.89534 -0.400874 -0.0746851 0.00556943 -0.232528 0.0553174 0.00556943 0.00337028 0.0553174 0.00200685 -0.232528 0.0553174 -0.400874 0.232829 0.0553174 0.00200685 0.232829 -0.0316616 0.000251265 1.22852e-05 0.00118678 -0.00015025 1.22852e-05 -1.6715e-05 -0.00015025 -3.53867e-05 0.00118678 -0.00015025 0.00337028 -0.00110472 -0.00015025 -3.53867e-05 -0.00110472 7.80663e-05 -1.6715e-05 3.32452e-06 -3.53867e-05 1.79402e-05 3.32452e-06 -5.90496e-09 1.79402e-05 -3.90711e-08 -3.53867e-05 1.79402e-05 7.80663e-05 4.10348e-05 1.79402e-05 -3.90711e-08 4.10348e-05 -1.46634e-07 0.00337028 -0.00110472 0.00200685 -0.00387336 -0.00110472 7.80663e-05 -0.00387336 0.000918102 0.00200685 -0.00387336 -0.0316616 -0.00629715 -0.00387336 0.000918102 -0.00629715 0.00378265 7.80663e-05 4.10348e-05 0.000918102 -4.56016e-05 4.10348e-05 -1.46634e-07 -4.56016e-05 -6.25419e-08 0.000918102 -4.56016e-05 0.00378265 -0.000793994 -4.56016e-05 -6.25419e-08 -0.000793994 1.34605e-06 22.6183 22.5503 22.6764 22.5285 22.5503 22.7273 22.5285 22.9262 22.6764 22.5285 22.6633 22.5501 22.5285 22.9262 22.5501 22.8864 22.7273 22.2232 22.9262 21.2676 22.2232 24.3048 21.2676 26.886 22.9262 21.2676 22.8864 21.5913 21.2676 26.886 21.5913 26.1288 22.6633 22.5501 22.6423 22.5438 22.5501 22.8864 22.5438 22.8357 22.6423 22.5438 22.6838 22.4645 22.5438 22.8357 22.4645 23.1265 22.8864 21.5913 22.8357 21.7193 21.5913 26.1288 21.7193 24.8591 22.8357 21.7193 23.1265 20.7109 21.7193 24.8591 20.7109 31.394 24.3048 14.2872 26.886 -21.7633 14.2872 -32.918 -21.7633 -26.6392 26.886 -21.7633 26.1288 -24.482 -21.7633 -26.6392 -24.482 -24.6085 -32.918 2.3283 -26.6392 18.8442 2.3283 9.38931 18.8442 15.4771 -26.6392 18.8442 -24.6085 31.7219 18.8442 15.4771 31.7219 8.69399 26.1288 -24.482 24.8591 -25.0949 -24.482 -24.6085 -25.0949 -24.4752 24.8591 -25.0949 31.394 -34.9077 -25.0949 -24.4752 -34.9077 26.8288 -24.6085 31.7219 -24.4752 34.5001 31.7219 8.69399 34.5001 -18.9827 -24.4752 34.5001 26.8288 25.116 34.5001 -18.9827 25.116 -30.61 22.6838 22.4645 22.4197 23.0008 22.4645 23.1265 23.0008 21.2233 22.4197 23.0008 22.4822 22.8835 23.0008 21.2233 22.8835 21.6653 23.1265 20.7109 21.2233 27.2996 20.7109 31.394 27.2996 -16.7331 21.2233 27.2996 21.6653 25.7887 27.2996 -16.7331 25.7887 -26.7088 22.4822 22.8835 22.4717 22.9162 22.8835 21.6653 22.9162 21.5588 22.4717 22.9162 22.4737 22.9184 22.9162 21.5588 22.9184 21.5577 21.6653 25.7887 21.5588 26.2131 25.7887 -26.7088 26.2131 -22.5146 21.5588 26.2131 21.5577 26.0776 26.2131 -22.5146 26.0776 -24.5635 31.394 -34.9077 -16.7331 -27.5714 -34.9077 26.8288 -27.5714 24.0634 -16.7331 -27.5714 -26.7088 -22.8939 -27.5714 24.0634 -22.8939 25.7419 26.8288 25.116 24.0634 25.8142 25.116 -30.61 25.8142 -33.0103 24.0634 25.8142 25.7419 26.0754 25.8142 -33.0103 26.0754 -34.8438 -26.7088 -22.8939 -22.5146 -25.3984 -22.8939 25.7419 -25.3984 34.211 -22.5146 -25.3984 -24.5635 -27.5858 -25.3984 34.211 -27.5858 34.9356 25.7419 26.0754 34.211 -26.695 26.0754 -34.8438 -26.695 -25.1417 34.211 -26.695 34.9356 -25.2625 -26.695 -25.1417 -25.2625 -26.1435 9.38931 -1.89534 15.4771 -7.7833 -1.89534 -0.400874 -7.7833 0.279194 15.4771 -7.7833 8.69399 -18.6685 -7.7833 0.279194 -18.6685 4.50708 -0.400874 0.232829 0.279194 0.604134 0.232829 -0.0316616 0.604134 -0.187381 0.279194 0.604134 4.50708 0.73213 0.604134 -0.187381 0.73213 -0.604948 8.69399 -18.6685 -18.9827 -25.4502 -18.6685 4.50708 -25.4502 15.6408 -18.9827 -25.4502 -30.61 -13.1986 -25.4502 15.6408 -13.1986 30.1842 4.50708 0.73213 15.6408 -1.53514 0.73213 -0.604948 -1.53514 -1.14341 15.6408 -1.53514 30.1842 -10.6605 -1.53514 -1.14341 -10.6605 -0.175665 -0.0316616 -0.00629715 -0.187381 0.0136954 -0.00629715 0.00378265 0.0136954 0.00802439 -0.187381 0.0136954 -0.604948 0.137025 0.0136954 0.00802439 0.137025 -0.00290724 0.00378265 -0.000793994 0.00802439 -0.0034095 -0.000793994 1.34605e-06 -0.0034095 8.79583e-06 0.00802439 -0.0034095 -0.00290724 -0.00749731 -0.0034095 8.79583e-06 -0.00749731 1.73698e-05 -0.604948 0.137025 -1.14341 0.525958 0.137025 -0.00290724 0.525958 -0.0975226 -1.14341 0.525958 -0.175665 1.18496 0.525958 -0.0975226 1.18496 -0.417885 -0.00290724 -0.00749731 -0.0975226 0.000626996 -0.00749731 1.73698e-05 0.000626996 2.11803e-05 -0.0975226 0.000626996 -0.417885 0.0728361 0.000626996 2.11803e-05 0.0728361 -0.0001315 -30.61 -13.1986 -33.0103 24.5662 -13.1986 30.1842 24.5662 30.716 -33.0103 24.5662 -34.8438 32.8326 24.5662 30.716 32.8326 5.96317 30.1842 -10.6605 30.716 -25.7758 -10.6605 -0.175665 -25.7758 6.39946 30.716 -25.7758 5.96317 -34.9283 -25.7758 6.39946 -34.9283 21.4657 -34.8438 32.8326 -25.1417 33.5357 32.8326 5.96317 33.5357 -28.7969 -25.1417 33.5357 -26.1435 36.3056 33.5357 -28.7969 36.3056 -34.4803 5.96317 -34.9283 -28.7969 -25.4338 -34.9283 21.4657 -25.4338 34.5054 -28.7969 -25.4338 -34.4803 18.8546 -25.4338 34.5054 18.8546 32.4696 -0.175665 1.18496 6.39946 1.13785 1.18496 -0.417885 1.13785 -1.05446 6.39946 1.13785 21.4657 -3.05193 1.13785 -1.05446 -3.05193 -1.38666 -0.417885 0.0728361 -1.05446 0.320293 0.0728361 -0.0001315 0.320293 -0.000932441 -1.05446 0.320293 -1.38666 0.808619 0.320293 -0.000932441 0.808619 -0.00125657 21.4657 -3.05193 34.5054 -15.334 -3.05193 -1.38666 -15.334 1.05527 34.5054 -15.334 32.4696 -30.006 -15.334 1.05527 -30.006 10.3491 -1.38666 0.808619 1.05527 1.14921 0.808619 -0.00125657 1.14921 -0.00240352 1.05527 1.14921 10.3491 -0.272797 1.14921 -0.00240352 -0.272797 -0.00261662 22.4737 22.9184 22.4717 22.9162 22.9184 21.5577 22.9162 21.5588 22.4717 22.9162 22.4822 22.8835 22.9162 21.5588 22.8835 21.6652 21.5577 26.0777 21.5588 26.2131 26.0777 -24.5642 26.2131 -22.5141 21.5588 26.2131 21.6652 25.7887 26.2131 -22.5141 25.7887 -26.7095 22.4822 22.8835 22.4197 23.0008 22.8835 21.6652 23.0008 21.2233 22.4197 23.0008 22.6838 22.4645 23.0008 21.2233 22.4645 23.1265 21.6652 25.7887 21.2233 27.2996 25.7887 -26.7095 27.2996 -16.7312 21.2233 27.2996 23.1265 20.7108 27.2996 -16.7312 20.7108 31.3939 -24.5642 -27.5845 -22.5141 -25.3992 -27.5845 34.9354 -25.3992 34.2118 -22.5141 -25.3992 -26.7095 -22.893 -25.3992 34.2118 -22.893 25.7333 34.9354 -25.2664 34.2118 -26.6926 -25.2664 -26.135 -26.6926 -25.1467 34.2118 -26.6926 25.7333 26.1005 -26.6926 -25.1467 26.1005 -34.8436 -26.7095 -22.893 -16.7312 -27.5723 -22.893 25.7333 -27.5723 24.0629 -16.7312 -27.5723 31.3939 -34.9073 -27.5723 24.0629 -34.9073 26.8344 25.7333 26.1005 24.0629 25.8065 26.1005 -34.8436 25.8065 -33.0122 24.0629 25.8065 26.8344 25.1185 25.8065 -33.0122 25.1185 -30.6219 22.6838 22.4645 22.6423 22.5438 22.4645 23.1265 22.5438 22.8357 22.6423 22.5438 22.6633 22.5501 22.5438 22.8357 22.5501 22.8864 23.1265 20.7108 22.8357 21.7191 20.7108 31.3939 21.7191 24.8594 22.8357 21.7191 22.8864 21.5913 21.7191 24.8594 21.5913 26.1289 22.6633 22.5501 22.6764 22.5285 22.5501 22.8864 22.5285 22.9262 22.6764 22.5285 22.6183 22.5503 22.5285 22.9262 22.5503 22.7273 22.8864 21.5913 22.9262 21.2676 21.5913 26.1289 21.2676 26.886 22.9262 21.2676 22.7273 22.2234 21.2676 26.886 22.2234 24.3042 31.3939 -34.9073 24.8594 -25.0992 -34.9073 26.8344 -25.0992 -24.464 24.8594 -25.0992 26.1289 -24.4825 -25.0992 -24.464 -24.4825 -24.6086 26.8344 25.1185 -24.464 34.4928 25.1185 -30.6219 34.4928 -18.9368 -24.464 34.4928 -24.6086 31.7135 34.4928 -18.9368 31.7135 8.74513 26.1289 -24.4825 26.886 -21.761 -24.4825 -24.6086 -21.761 -26.6408 26.886 -21.761 24.3042 14.2918 -21.761 -26.6408 14.2918 -32.9203 -24.6086 31.7135 -26.6408 18.8611 31.7135 8.74513 18.8611 15.5006 -26.6408 18.8611 -32.9203 2.34389 18.8611 15.5006 2.34389 9.40045 -26.135 36.3049 -25.1467 33.5366 36.3049 -34.4799 33.5366 -28.7969 -25.1467 33.5366 -34.8436 32.8302 33.5366 -28.7969 32.8302 5.95641 -34.4799 18.8546 -28.7969 -25.4344 18.8546 32.4743 -25.4344 34.506 -28.7969 -25.4344 5.95641 -34.927 -25.4344 34.506 -34.927 21.4622 -34.8436 32.8302 -33.0122 24.581 32.8302 5.95641 24.581 30.7107 -33.0122 24.581 -30.6219 -13.162 24.581 30.7107 -13.162 30.1866 5.95641 -34.927 30.7107 -25.7755 -34.927 21.4622 -25.7755 6.39761 30.7107 -25.7755 30.1866 -10.6613 -25.7755 6.39761 -10.6613 -0.176109 32.4743 -30.0136 34.506 -15.3421 -30.0136 10.3492 -15.3421 1.05548 34.506 -15.3421 21.4622 -3.05586 -15.3421 1.05548 -3.05586 -1.38679 10.3492 -0.272966 1.05548 1.14926 -0.272966 -0.00293993 1.14926 -0.00258429 1.05548 1.14926 -1.38679 0.808744 1.14926 -0.00258429 0.808744 -0.00134108 21.4622 -3.05586 6.39761 1.13642 -3.05586 -1.38679 1.13642 -1.05458 6.39761 1.13642 -0.176109 1.18457 1.13642 -1.05458 1.18457 -0.417944 -1.38679 0.808744 -1.05458 0.320365 0.808744 -0.00134108 0.320365 -0.000958443 -1.05458 0.320365 -0.417944 0.0728665 0.320365 -0.000958443 0.0728665 -0.000135378 -30.6219 -13.162 -18.9368 -25.4356 -13.162 30.1866 -25.4356 15.65 -18.9368 -25.4356 8.74513 -18.6494 -25.4356 15.65 -18.6494 4.5112 30.1866 -10.6613 15.65 -1.53666 -10.6613 -0.176109 -1.53666 -1.1433 15.65 -1.53666 4.5112 0.731938 -1.53666 -1.1433 0.731938 -0.604982 8.74513 -18.6494 15.5006 -7.7702 -18.6494 4.5112 -7.7702 0.280929 15.5006 -7.7702 9.40045 -1.89028 -7.7702 0.280929 -1.89028 -0.399904 4.5112 0.731938 0.280929 0.604211 0.731938 -0.604982 0.604211 -0.187406 0.280929 0.604211 -0.399904 0.232867 0.604211 -0.187406 0.232867 -0.0316635 -0.176109 1.18457 -1.1433 0.525857 1.18457 -0.417944 0.525857 -0.0975334 -1.1433 0.525857 -0.604982 0.137037 0.525857 -0.0975334 0.137037 -0.00291123 -0.417944 0.0728665 -0.0975334 0.000634874 0.0728665 -0.000135378 0.000634874 2.33972e-05 -0.0975334 0.000634874 -0.00291123 -0.00749424 0.000634874 2.33972e-05 -0.00749424 1.85101e-05 -0.604982 0.137037 -0.187406 0.0137076 0.137037 -0.00291123 0.0137076 0.00802564 -0.187406 0.0137076 -0.0316635 -0.00629362 0.0137076 0.00802564 -0.00629362 0.00378435 -0.00291123 -0.00749424 0.00802564 -0.00340869 -0.00749424 1.85101e-05 -0.00340869 9.37927e-06 0.00802564 -0.00340869 0.00378435 -0.000793741 -0.00340869 9.37927e-06 -0.000793741 1.55174e-06 22.6183 22.5503 22.7199 22.7129 22.5503 22.7273 22.7129 22.8165 22.7199 22.7129 22.6653 22.6063 22.7129 22.8165 22.6063 22.5747 22.7273 22.2234 22.8165 22.7266 22.2234 24.3042 22.7266 21.6408 22.8165 22.7266 22.5747 21.7112 22.7266 21.6408 21.7112 23.1022 22.6653 22.6063 21.9727 21.9759 22.6063 22.5747 21.9759 22.145 21.9727 21.9759 23.345 23.5828 21.9759 22.145 23.5828 24.3658 22.5747 21.7112 22.145 22.7078 21.7112 23.1022 22.7078 25.9596 22.145 22.7078 24.3658 24.9978 22.7078 25.9596 24.9978 19.648 24.3042 14.2918 21.6408 27.9465 14.2918 -32.9203 27.9465 -23.8191 21.6408 27.9465 23.1022 23.6577 27.9465 -23.8191 23.6577 -8.93408 -32.9203 2.34389 -23.8191 -3.77312 2.34389 9.40045 -3.77312 3.57444 -23.8191 -3.77312 -8.93408 -3.1438 -3.77312 3.57444 -3.1438 0.96599 23.1022 23.6577 25.9596 14.7189 23.6577 -8.93408 14.7189 -1.93454 25.9596 14.7189 19.648 6.55237 14.7189 -1.93454 6.55237 -0.074778 -8.93408 -3.1438 -1.93454 -1.33236 -3.1438 0.96599 -1.33236 0.149881 -1.93454 -1.33236 -0.074778 -0.414572 -1.33236 0.149881 -0.414572 -0.0043019 23.345 23.5828 23.7981 23.336 23.5828 24.3658 23.336 21.3672 23.7981 23.336 13.406 12.4991 23.336 21.3672 12.4991 9.86991 24.3658 24.9978 21.3672 16.4309 24.9978 19.648 16.4309 8.62683 21.3672 16.4309 9.86991 6.12343 16.4309 8.62683 6.12343 2.70019 13.406 12.4991 4.42514 4.00894 12.4991 9.86991 4.00894 2.9427 4.42514 4.00894 1.92573 1.73283 4.00894 2.9427 1.73283 1.25505 9.86991 6.12343 2.9427 1.69298 6.12343 2.70019 1.69298 0.725782 2.9427 1.69298 1.25505 0.718167 1.69298 0.725782 0.718167 0.313 19.648 6.55237 8.62683 2.38747 6.55237 -0.074778 2.38747 0.13367 8.62683 2.38747 2.70019 0.743288 2.38747 0.13367 0.743288 0.0765818 -0.074778 -0.414572 0.13367 -0.100999 -0.414572 -0.0043019 -0.100999 -0.0126091 0.13367 -0.100999 0.0765818 -0.019448 -0.100999 -0.0126091 -0.019448 -0.00525335 2.70019 0.743288 0.725782 0.210482 0.743288 0.0765818 0.210482 0.0307343 0.725782 0.210482 0.313 0.0964816 0.210482 0.0307343 0.0964816 0.0171091 0.0765818 -0.019448 0.0307343 -0.0024781 -0.019448 -0.00525335 -0.0024781 -0.00157335 0.0307343 -0.0024781 0.0171091 -2.1915e-05 -0.0024781 -0.00157335 -2.1915e-05 -0.000696184 9.40045 -1.89028 3.57444 -0.124568 -1.89028 -0.399904 -0.124568 -0.232117 3.57444 -0.124568 0.96599 0.11594 -0.124568 -0.232117 0.11594 -0.0745414 -0.399904 0.232867 -0.232117 0.0553506 0.232867 -0.0316635 0.0553506 0.00200602 -0.232117 0.0553506 -0.0745414 0.00558877 0.0553506 0.00200602 0.00558877 0.00337039 0.96599 0.11594 0.149881 0.069857 0.11594 -0.0745414 0.069857 -0.0162787 0.149881 0.069857 -0.0043019 0.0227713 0.069857 -0.0162787 0.0227713 -0.00159857 -0.0745414 0.00558877 -0.0162787 -0.00154494 0.00558877 0.00337039 -0.00154494 0.00118721 -0.0162787 -0.00154494 -0.00159857 -0.00105163 -0.00154494 0.00118721 -0.00105163 0.00025153 -0.0316635 -0.00629362 0.00200602 -0.00387202 -0.00629362 0.00378435 -0.00387202 0.000918821 0.00200602 -0.00387202 0.00337039 -0.00110439 -0.00387202 0.000918821 -0.00110439 7.83327e-05 0.00378435 -0.000793741 0.000918821 -4.54417e-05 -0.000793741 1.55174e-06 -4.54417e-05 -1.65349e-08 0.000918821 -4.54417e-05 7.83327e-05 4.1105e-05 -4.54417e-05 -1.65349e-08 4.1105e-05 -1.31949e-07 0.00337039 -0.00110439 0.00118721 -0.000150207 -0.00110439 7.83327e-05 -0.000150207 -3.53046e-05 0.00118721 -0.000150207 0.00025153 1.2294e-05 -0.000150207 -3.53046e-05 1.2294e-05 -1.66969e-05 7.83327e-05 4.1105e-05 -3.53046e-05 1.79666e-05 4.1105e-05 -1.31949e-07 1.79666e-05 -3.38131e-08 -3.53046e-05 1.79666e-05 -1.66969e-05 3.33316e-06 1.79666e-05 -3.38131e-08 3.33316e-06 -4.12663e-09 -0.0043019 0.0227713 -0.0126091 0.00523207 0.0227713 -0.00159857 0.00523207 0.000376824 -0.0126091 0.00523207 -0.00525335 0.000797729 0.00523207 0.000376824 0.000797729 0.000243862 -0.00159857 -0.00105163 0.000376824 -0.000312214 -0.00105163 0.00025153 -0.000312214 2.04211e-05 0.000376824 -0.000312214 0.000243862 -5.80218e-05 -0.000312214 2.04211e-05 -5.80218e-05 -6.69593e-06 -0.00525335 0.000797729 -0.00157335 2.24903e-05 0.000797729 0.000243862 2.24903e-05 7.56725e-05 -0.00157335 2.24903e-05 -0.000696184 -5.41363e-05 2.24903e-05 7.56725e-05 -5.41363e-05 3.07733e-05 0.000243862 -5.80218e-05 7.56725e-05 -4.29441e-06 -5.80218e-05 -6.69593e-06 -4.29441e-06 -3.55659e-06 7.56725e-05 -4.29441e-06 3.07733e-05 2.17009e-06 -4.29441e-06 -3.55659e-06 2.17009e-06 -1.71519e-06 0.00025153 1.2294e-05 2.04211e-05 1.3879e-05 1.2294e-05 -1.66969e-05 1.3879e-05 -3.77536e-06 2.04211e-05 1.3879e-05 -6.69593e-06 4.07963e-06 1.3879e-05 -3.77536e-06 4.07963e-06 -3.15696e-07 -1.66969e-05 3.33316e-06 -3.77536e-06 7.43251e-08 3.33316e-06 -4.12663e-09 7.43251e-08 9.18521e-10 -3.77536e-06 7.43251e-08 -3.15696e-07 -1.64933e-07 7.43251e-08 9.18521e-10 -1.64933e-07 6.31899e-10 -6.69593e-06 4.07963e-06 -3.55659e-06 6.40991e-07 4.07963e-06 -3.15696e-07 6.40991e-07 1.00301e-07 -3.55659e-06 6.40991e-07 -1.71519e-06 4.65696e-08 6.40991e-07 1.00301e-07 4.65696e-08 8.75488e-08 -3.15696e-07 -1.64933e-07 1.00301e-07 -5.4969e-08 -1.64933e-07 6.31899e-10 -5.4969e-08 6.23155e-11 1.00301e-07 -5.4969e-08 8.75488e-08 -1.74633e-08 -5.4969e-08 6.23155e-11 -1.74633e-08 6.1282e-12 20.3857 26.7037 20.6287 26.2668 26.7037 -24.2534 26.2668 -22.9329 20.6287 26.2668 19.9081 27.573 26.2668 -22.9329 27.573 -26.6781 -24.2534 -25.2149 -22.9329 -25.1726 -25.2149 33.7945 -25.1726 33.8118 -22.9329 -25.1726 -26.6781 -25.3535 -25.1726 33.8118 -25.3535 33.7667 19.9081 27.573 23.5692 20.8704 27.573 -26.6781 20.8704 31.9594 23.5692 20.8704 23.3869 21.1145 20.8704 31.9594 21.1145 26.1078 -26.6781 -25.3535 31.9594 -36.5073 -25.3535 33.7667 -36.5073 35.8072 31.9594 -36.5073 26.1078 -34.9824 -36.5073 35.8072 -34.9824 35.6344 33.7945 -24.5652 33.8118 -24.5627 -24.5652 -25.1246 -24.5627 -25.1218 33.8118 -24.5627 33.7667 -24.5727 -24.5627 -25.1218 -24.5727 -25.1281 -25.1246 35.568 -25