# vtk DataFile Version 3.0
#This file was generated by the deal.II library on 2023/3/8 at 18:39:22
ASCII
DATASET UNSTRUCTURED_GRID

FIELD FieldData 2
CYCLE 1 1 int
47
TIME 1 1 double
0.094
POINTS 1024 double
2 0 0
1.84776 1.22465e-16 0.765367
2.07612 0.382683 0
1.91809 0.382683 0.794497
1.84776 1.22465e-16 0.765367
1.41421 1.22465e-16 1.41421
1.91809 0.382683 0.794497
1.46804 0.382683 1.46804
2.07612 0.382683 0
1.91809 0.382683 0.794497
2.29289 0.707107 0
2.11836 0.707107 0.877452
1.91809 0.382683 0.794497
1.46804 0.382683 1.46804
2.11836 0.707107 0.877452
1.62132 0.707107 1.62132
1.41421 1.22465e-16 1.41421
0.765367 1.22465e-16 1.84776
1.46804 0.382683 1.46804
0.794497 0.382683 1.91809
0.765367 1.22465e-16 1.84776
0 0 2
0.794497 0.382683 1.91809
1.27126e-16 0.382683 2.07612
1.46804 0.382683 1.46804
0.794497 0.382683 1.91809
1.62132 0.707107 1.62132
0.877452 0.707107 2.11836
0.794497 0.382683 1.91809
1.27126e-16 0.382683 2.07612
0.877452 0.707107 2.11836
1.40399e-16 0.707107 2.29289
2.29289 0.707107 0
2.11836 0.707107 0.877452
2.61732 0.92388 0
2.41809 0.92388 1.0016
2.11836 0.707107 0.877452
1.62132 0.707107 1.62132
2.41809 0.92388 1.0016
1.85072 0.92388 1.85072
2.61732 0.92388 0
2.41809 0.92388 1.0016
3 1 0
2.77164 1 1.14805
2.41809 0.92388 1.0016
1.85072 0.92388 1.85072
2.77164 1 1.14805
2.12132 1 2.12132
1.62132 0.707107 1.62132
0.877452 0.707107 2.11836
1.85072 0.92388 1.85072
1.0016 0.92388 2.41809
0.877452 0.707107 2.11836
1.40399e-16 0.707107 2.29289
1.0016 0.92388 2.41809
1.60264e-16 0.92388 2.61732
1.85072 0.92388 1.85072
1.0016 0.92388 2.41809
2.12132 1 2.12132
1.14805 1 2.77164
1.0016 0.92388 2.41809
1.60264e-16 0.92388 2.61732
1.14805 1 2.77164
0 1 3
3 -1 0
2.77164 -1 1.14805
2.61732 -0.92388 0
2.41809 -0.92388 1.0016
2.77164 -1 1.14805
2.12132 -1 2.12132
2.41809 -0.92388 1.0016
1.85072 -0.92388 1.85072
2.61732 -0.92388 0
2.41809 -0.92388 1.0016
2.29289 -0.707107 0
2.11836 -0.707107 0.877452
2.41809 -0.92388 1.0016
1.85072 -0.92388 1.85072
2.11836 -0.707107 0.877452
1.62132 -0.707107 1.62132
2.12132 -1 2.12132
1.14805 -1 2.77164
1.85072 -0.92388 1.85072
1.0016 -0.92388 2.41809
1.14805 -1 2.77164
0 -1 3
1.0016 -0.92388 2.41809
1.60264e-16 -0.92388 2.61732
1.85072 -0.92388 1.85072
1.0016 -0.92388 2.41809
1.62132 -0.707107 1.62132
0.877452 -0.707107 2.11836
1.0016 -0.92388 2.41809
1.60264e-16 -0.92388 2.61732
0.877452 -0.707107 2.11836
1.40399e-16 -0.707107 2.29289
2.29289 -0.707107 0
2.11836 -0.707107 0.877452
2.07612 -0.382683 0
1.91809 -0.382683 0.794497
2.11836 -0.707107 0.877452
1.62132 -0.707107 1.62132
1.91809 -0.382683 0.794497
1.46804 -0.382683 1.46804
2.07612 -0.382683 0
1.91809 -0.382683 0.794497
2 0 0
1.84776 1.22465e-16 0.765367
1.91809 -0.382683 0.794497
1.46804 -0.382683 1.46804
1.84776 1.22465e-16 0.765367
1.41421 1.22465e-16 1.41421
1.62132 -0.707107 1.62132
0.877452 -0.707107 2.11836
1.46804 -0.382683 1.46804
0.794497 -0.382683 1.91809
0.877452 -0.707107 2.11836
1.40399e-16 -0.707107 2.29289
0.794497 -0.382683 1.91809
1.27126e-16 -0.382683 2.07612
1.46804 -0.382683 1.46804
0.794497 -0.382683 1.91809
1.41421 1.22465e-16 1.41421
0.765367 1.22465e-16 1.84776
0.794497 -0.382683 1.91809
1.27126e-16 -0.382683 2.07612
0.765367 1.22465e-16 1.84776
0 0 2
4 0 0
3.69552 0 1.53073
3.92388 -0.382683 0
3.62519 -0.382683 1.5016
3.69552 0 1.53073
2.82843 0 2.82843
3.62519 -0.382683 1.5016
2.7746 -0.382683 2.7746
3.92388 -0.382683 0
3.62519 -0.382683 1.5016
3.70711 -0.707107 0
3.42492 -0.707107 1.41865
3.62519 -0.382683 1.5016
2.7746 -0.382683 2.7746
3.42492 -0.707107 1.41865
2.62132 -0.707107 2.62132
2.82843 0 2.82843
1.53073 0 3.69552
2.7746 -0.382683 2.7746
1.5016 -0.382683 3.62519
1.53073 0 3.69552
0 0 4
1.5016 -0.382683 3.62519
2.40268e-16 -0.382683 3.92388
2.7746 -0.382683 2.7746
1.5016 -0.382683 3.62519
2.62132 -0.707107 2.62132
1.41865 -0.707107 3.42492
1.5016 -0.382683 3.62519
2.40268e-16 -0.382683 3.92388
1.41865 -0.707107 3.42492
2.26995e-16 -0.707107 3.70711
3.70711 -0.707107 0
3.42492 -0.707107 1.41865
3.38268 -0.92388 0
3.12519 -0.92388 1.2945
3.42492 -0.707107 1.41865
2.62132 -0.707107 2.62132
3.12519 -0.92388 1.2945
2.39192 -0.92388 2.39192
3.38268 -0.92388 0
3.12519 -0.92388 1.2945
3 -1 0
2.77164 -1 1.14805
3.12519 -0.92388 1.2945
2.39192 -0.92388 2.39192
2.77164 -1 1.14805
2.12132 -1 2.12132
2.62132 -0.707107 2.62132
1.41865 -0.707107 3.42492
2.39192 -0.92388 2.39192
1.2945 -0.92388 3.12519
1.41865 -0.707107 3.42492
2.26995e-16 -0.707107 3.70711
1.2945 -0.92388 3.12519
2.0713e-16 -0.92388 3.38268
2.39192 -0.92388 2.39192
1.2945 -0.92388 3.12519
2.12132 -1 2.12132
1.14805 -1 2.77164
1.2945 -0.92388 3.12519
2.0713e-16 -0.92388 3.38268
1.14805 -1 2.77164
0 -1 3
3 1 0
2.77164 1 1.14805
3.38268 0.92388 0
3.12519 0.92388 1.2945
2.77164 1 1.14805
2.12132 1 2.12132
3.12519 0.92388 1.2945
2.39192 0.92388 2.39192
3.38268 0.92388 0
3.12519 0.92388 1.2945
3.70711 0.707107 0
3.42492 0.707107 1.41865
3.12519 0.92388 1.2945
2.39192 0.92388 2.39192
3.42492 0.707107 1.41865
2.62132 0.707107 2.62132
2.12132 1 2.12132
1.14805 1 2.77164
2.39192 0.92388 2.39192
1.2945 0.92388 3.12519
1.14805 1 2.77164
0 1 3
1.2945 0.92388 3.12519
2.0713e-16 0.92388 3.38268
2.39192 0.92388 2.39192
1.2945 0.92388 3.12519
2.62132 0.707107 2.62132
1.41865 0.707107 3.42492
1.2945 0.92388 3.12519
2.0713e-16 0.92388 3.38268
1.41865 0.707107 3.42492
2.26995e-16 0.707107 3.70711
3.70711 0.707107 0
3.42492 0.707107 1.41865
3.92388 0.382683 0
3.62519 0.382683 1.5016
3.42492 0.707107 1.41865
2.62132 0.707107 2.62132
3.62519 0.382683 1.5016
2.7746 0.382683 2.7746
3.92388 0.382683 0
3.62519 0.382683 1.5016
4 0 0
3.69552 0 1.53073
3.62519 0.382683 1.5016
2.7746 0.382683 2.7746
3.69552 0 1.53073
2.82843 0 2.82843
2.62132 0.707107 2.62132
1.41865 0.707107 3.42492
2.7746 0.382683 2.7746
1.5016 0.382683 3.62519
1.41865 0.707107 3.42492
2.26995e-16 0.707107 3.70711
1.5016 0.382683 3.62519
2.40268e-16 0.382683 3.92388
2.7746 0.382683 2.7746
1.5016 0.382683 3.62519
2.82843 0 2.82843
1.53073 0 3.69552
1.5016 0.382683 3.62519
2.40268e-16 0.382683 3.92388
1.53073 0 3.69552
0 0 4
0 0 2
-0.765367 1.22465e-16 1.84776
1.27126e-16 0.382683 2.07612
-0.794497 0.382683 1.91809
-0.765367 1.22465e-16 1.84776
-1.41421 1.22465e-16 1.41421
-0.794497 0.382683 1.91809
-1.46804 0.382683 1.46804
1.27126e-16 0.382683 2.07612
-0.794497 0.382683 1.91809
1.40399e-16 0.707107 2.29289
-0.877452 0.707107 2.11836
-0.794497 0.382683 1.91809
-1.46804 0.382683 1.46804
-0.877452 0.707107 2.11836
-1.62132 0.707107 1.62132
-1.41421 1.22465e-16 1.41421
-1.84776 1.22465e-16 0.765367
-1.46804 0.382683 1.46804
-1.91809 0.382683 0.794497
-1.84776 1.22465e-16 0.765367
-2 0 0
-1.91809 0.382683 0.794497
-2.07612 0.382683 2.54251e-16
-1.46804 0.382683 1.46804
-1.91809 0.382683 0.794497
-1.62132 0.707107 1.62132
-2.11836 0.707107 0.877452
-1.91809 0.382683 0.794497
-2.07612 0.382683 2.54251e-16
-2.11836 0.707107 0.877452
-2.29289 0.707107 2.80798e-16
1.40399e-16 0.707107 2.29289
-0.877452 0.707107 2.11836
1.60264e-16 0.92388 2.61732
-1.0016 0.92388 2.41809
-0.877452 0.707107 2.11836
-1.62132 0.707107 1.62132
-1.0016 0.92388 2.41809
-1.85072 0.92388 1.85072
1.60264e-16 0.92388 2.61732
-1.0016 0.92388 2.41809
0 1 3
-1.14805 1 2.77164
-1.0016 0.92388 2.41809
-1.85072 0.92388 1.85072
-1.14805 1 2.77164
-2.12132 1 2.12132
-1.62132 0.707107 1.62132
-2.11836 0.707107 0.877452
-1.85072 0.92388 1.85072
-2.41809 0.92388 1.0016
-2.11836 0.707107 0.877452
-2.29289 0.707107 2.80798e-16
-2.41809 0.92388 1.0016
-2.61732 0.92388 3.20529e-16
-1.85072 0.92388 1.85072
-2.41809 0.92388 1.0016
-2.12132 1 2.12132
-2.77164 1 1.14805
-2.41809 0.92388 1.0016
-2.61732 0.92388 3.20529e-16
-2.77164 1 1.14805
-3 1 0
0 -1 3
-1.14805 -1 2.77164
1.60264e-16 -0.92388 2.61732
-1.0016 -0.92388 2.41809
-1.14805 -1 2.77164
-2.12132 -1 2.12132
-1.0016 -0.92388 2.41809
-1.85072 -0.92388 1.85072
1.60264e-16 -0.92388 2.61732
-1.0016 -0.92388 2.41809
1.40399e-16 -0.707107 2.29289
-0.877452 -0.707107 2.11836
-1.0016 -0.92388 2.41809
-1.85072 -0.92388 1.85072
-0.877452 -0.707107 2.11836
-1.62132 -0.707107 1.62132
-2.12132 -1 2.12132
-2.77164 -1 1.14805
-1.85072 -0.92388 1.85072
-2.41809 -0.92388 1.0016
-2.77164 -1 1.14805
-3 -1 0
-2.41809 -0.92388 1.0016
-2.61732 -0.92388 3.20529e-16
-1.85072 -0.92388 1.85072
-2.41809 -0.92388 1.0016
-1.62132 -0.707107 1.62132
-2.11836 -0.707107 0.877452
-2.41809 -0.92388 1.0016
-2.61732 -0.92388 3.20529e-16
-2.11836 -0.707107 0.877452
-2.29289 -0.707107 2.80798e-16
1.40399e-16 -0.707107 2.29289
-0.877452 -0.707107 2.11836
1.27126e-16 -0.382683 2.07612
-0.794497 -0.382683 1.91809
-0.877452 -0.707107 2.11836
-1.62132 -0.707107 1.62132
-0.794497 -0.382683 1.91809
-1.46804 -0.382683 1.46804
1.27126e-16 -0.382683 2.07612
-0.794497 -0.382683 1.91809
0 0 2
-0.765367 1.22465e-16 1.84776
-0.794497 -0.382683 1.91809
-1.46804 -0.382683 1.46804
-0.765367 1.22465e-16 1.84776
-1.41421 1.22465e-16 1.41421
-1.62132 -0.707107 1.62132
-2.11836 -0.707107 0.877452
-1.46804 -0.382683 1.46804
-1.91809 -0.382683 0.794497
-2.11836 -0.707107 0.877452
-2.29289 -0.707107 2.80798e-16
-1.91809 -0.382683 0.794497
-2.07612 -0.382683 2.54251e-16
-1.46804 -0.382683 1.46804
-1.91809 -0.382683 0.794497
-1.41421 1.22465e-16 1.41421
-1.84776 1.22465e-16 0.765367
-1.91809 -0.382683 0.794497
-2.07612 -0.382683 2.54251e-16
-1.84776 1.22465e-16 0.765367
-2 0 0
0 0 4
-1.53073 0 3.69552
2.40268e-16 -0.382683 3.92388
-1.5016 -0.382683 3.62519
-1.53073 0 3.69552
-2.82843 0 2.82843
-1.5016 -0.382683 3.62519
-2.7746 -0.382683 2.7746
2.40268e-16 -0.382683 3.92388
-1.5016 -0.382683 3.62519
2.26995e-16 -0.707107 3.70711
-1.41865 -0.707107 3.42492
-1.5016 -0.382683 3.62519
-2.7746 -0.382683 2.7746
-1.41865 -0.707107 3.42492
-2.62132 -0.707107 2.62132
-2.82843 0 2.82843
-3.69552 0 1.53073
-2.7746 -0.382683 2.7746
-3.62519 -0.382683 1.5016
-3.69552 0 1.53073
-4 0 0
-3.62519 -0.382683 1.5016
-3.92388 -0.382683 4.80537e-16
-2.7746 -0.382683 2.7746
-3.62519 -0.382683 1.5016
-2.62132 -0.707107 2.62132
-3.42492 -0.707107 1.41865
[...]
POINT_DATA 1024
SCALARS U double 1
LOOKUP_TABLE default
0.0368921 0.0366946 0.0392391 0.0390025 0.0366946 0.0377694 0.0390025 0.0401391 0.0392391 0.0390025 0.0391188 0.0388377 0.0390025 0.0401391 0.0388377 0.0398931 0.0377694 0.032567 0.0401391 0.0350304 0.032567 0.00428682 0.0350304 0.00415547 0.0401391 0.0350304 0.0398931 0.0359556 0.0350304 0.00415547 0.0359556 0.00308509 0.0391188 0.0388377 0.0390808 0.0387927 0.0388377 0.0398931 0.0387927 0.0396354 0.0390808 0.0387927 0.0390883 0.0388486 0.0387927 0.0396354 0.0388486 0.0393824 0.0398931 0.0359556 0.0396354 0.0372626 0.0359556 0.00308509 0.0372626 0.00172525 0.0396354 0.0372626 0.0393824 0.0385723 0.0372626 0.00172525 0.0385723 0.000429507 -0.00032691 -0.00032566 0.0017774 0.00176413 -0.00032566 -0.00032845 0.00176413 0.00181273 0.0017774 0.00176413 0.0110892 0.0110157 0.00176413 0.00181273 0.0110157 0.0113312 -0.00032845 -0.000324816 0.00181273 0.00163654 -0.000324816 -1.645e-06 0.00163654 0.000137123 0.00181273 0.00163654 0.0113312 0.0100199 0.00163654 0.000137123 0.0100199 0.00105095 0.0110892 0.0110157 0.0265294 0.0263768 0.0110157 0.0113312 0.0263768 0.0271475 0.0265294 0.0263768 0.0368921 0.0366946 0.0263768 0.0271475 0.0366946 0.0377694 0.0113312 0.0100199 0.0271475 0.0235739 0.0100199 0.00105095 0.0235739 0.00292302 0.0271475 0.0235739 0.0377694 0.032567 0.0235739 0.00292302 0.032567 0.00428682 0.0370644 0.0370488 0.027519 0.0275004 0.0370488 0.0368135 0.0275004 0.0273464 0.027519 0.0275004 0.0123896 0.0123693 0.0275004 0.0273464 0.0123693 0.0123358 0.0368135 0.0388356 0.0273464 0.0287796 0.0388356 -0.00179054 0.0287796 -0.00127732 0.0273464 0.0287796 0.0123358 0.0128609 0.0287796 -0.00127732 0.0128609 -0.000482731 0.0123896 0.0123693 0.00226169 0.00225387 0.0123693 0.0123358 0.00225387 0.00226049 0.00226169 0.00225387 -0.00032691 -0.00032566 0.00225387 0.00226049 -0.00032566 -0.00032845 0.0123358 0.0128609 0.00226049 0.00231276 0.0128609 -0.000482731 0.00231276 -5.44761e-05 0.00226049 0.00231276 -0.00032845 -0.000324816 0.00231276 -5.44761e-05 -0.000324816 -1.645e-06 0.0390883 0.0388486 0.0390509 0.0388897 0.0388486 0.0393824 0.0388897 0.0391074 0.0390509 0.0388897 0.0390845 0.038998 0.0388897 0.0391074 0.038998 0.038964 0.0393824 0.0385723 0.0391074 0.0395927 0.0385723 0.000429507 0.0395927 -0.000607622 0.0391074 0.0395927 0.038964 0.040369 0.0395927 -0.000607622 0.040369 -0.00132753 0.0390845 0.038998 0.0392107 0.0391749 0.038998 0.038964 0.0391749 0.0389835 0.0392107 0.0391749 0.0370644 0.0370488 0.0391749 0.0389835 0.0370488 0.0368135 0.038964 0.040369 0.0389835 0.0409311 0.040369 -0.00132753 0.0409311 -0.00174724 0.0389835 0.0409311 0.0368135 0.0388356 0.0409311 -0.00174724 0.0388356 -0.00179054 0.00428682 -0.000916818 0.00415547 -0.000953933 -0.000916818 0.000158641 -0.000953933 0.000180996 0.00415547 -0.000953933 0.00308509 -0.000851634 -0.000953933 0.000180996 -0.000851634 0.000196554 0.000158641 -1.81599e-05 0.000180996 -2.59928e-05 -1.81599e-05 -3.53209e-07 -2.59928e-05 3.53311e-06 0.000180996 -2.59928e-05 0.000196554 -3.96711e-05 -2.59928e-05 3.53311e-06 -3.96711e-05 1.26882e-05 0.00308509 -0.000851634 0.00172525 -0.000645114 -0.000851634 0.000196554 -0.000645114 0.000185435 0.00172525 -0.000645114 0.000429507 -0.000377346 -0.000645114 0.000185435 -0.000377346 0.000142707 0.000196554 -3.96711e-05 0.000185435 -4.83909e-05 -3.96711e-05 1.26882e-05 -4.83909e-05 2.08513e-05 0.000185435 -4.83909e-05 0.000142707 -4.59392e-05 -4.83909e-05 2.08513e-05 -4.59392e-05 2.33075e-05 -1.645e-06 1.97572e-06 0.000137123 -3.90449e-05 1.97572e-06 -7.4551e-07 -3.90449e-05 9.22089e-06 0.000137123 -3.90449e-05 0.00105095 -0.00026041 -3.90449e-05 9.22089e-06 -0.00026041 5.38986e-05 -7.4551e-07 2.34911e-07 9.22089e-06 -1.90489e-06 2.34911e-07 -1.19217e-07 -1.90489e-06 6.22991e-07 9.22089e-06 -1.90489e-06 5.38986e-05 -9.14789e-06 -1.90489e-06 6.22991e-07 -9.14789e-06 2.12256e-06 0.00105095 -0.00026041 0.00292302 -0.00065123 -0.00026041 5.38986e-05 -0.00065123 0.000119013 0.00292302 -0.00065123 0.00428682 -0.000916818 -0.00065123 0.000119013 -0.000916818 0.000158641 5.38986e-05 -9.14789e-06 0.000119013 -1.57038e-05 -9.14789e-06 2.12256e-06 -1.57038e-05 1.28372e-06 0.000119013 -1.57038e-05 0.000158641 -1.81599e-05 -1.57038e-05 1.28372e-06 -1.81599e-05 -3.53209e-07 -0.00179054 0.00023354 -0.00127732 0.000157513 0.00023354 -7.78638e-06 0.000157513 -1.34556e-06 -0.00127732 0.000157513 -0.000482731 4.32281e-05 0.000157513 -1.34556e-06 4.32281e-05 6.98829e-06 -7.78638e-06 -1.13702e-05 -1.34556e-06 -9.66215e-06 -1.13702e-05 1.00793e-05 -9.66215e-06 8.05149e-06 -1.34556e-06 -9.66215e-06 6.98829e-06 -6.39143e-06 -9.66215e-06 8.05149e-06 -6.39143e-06 4.5575e-06 -0.000482731 4.32281e-05 -5.44761e-05 -2.00799e-06 4.32281e-05 6.98829e-06 -2.00799e-06 3.93075e-06 -5.44761e-05 -2.00799e-06 -1.645e-06 1.97572e-06 -2.00799e-06 3.93075e-06 1.97572e-06 -7.4551e-07 6.98829e-06 -6.39143e-06 3.93075e-06 -1.85696e-06 -6.39143e-06 4.5575e-06 -1.85696e-06 1.13541e-06 3.93075e-06 -1.85696e-06 -7.4551e-07 2.34911e-07 -1.85696e-06 1.13541e-06 2.34911e-07 -1.19217e-07 0.000429507 -0.000377346 -0.000607622 -0.000119044 -0.000377346 0.000142707 -0.000119044 8.65147e-05 -0.000607622 -0.000119044 -0.00132753 8.02346e-05 -0.000119044 8.65147e-05 8.02346e-05 3.67011e-05 0.000142707 -4.59392e-05 8.65147e-05 -3.55681e-05 -4.59392e-05 2.33075e-05 -3.55681e-05 2.0565e-05 8.65147e-05 -3.55681e-05 3.67011e-05 -2.38349e-05 -3.55681e-05 2.0565e-05 -2.38349e-05 1.59346e-05 -0.00132753 8.02346e-05 -0.00174724 0.000202664 8.02346e-05 3.67011e-05 0.000202664 4.04085e-06 -0.00174724 0.000202664 -0.00179054 0.00023354 0.000202664 4.04085e-06 0.00023354 -7.78638e-06 3.67011e-05 -2.38349e-05 4.04085e-06 -1.5362e-05 -2.38349e-05 1.59346e-05 -1.5362e-05 1.21985e-05 4.04085e-06 -1.5362e-05 -7.78638e-06 -1.13702e-05 -1.5362e-05 1.21985e-05 -1.13702e-05 1.00793e-05 -3.53209e-07 -1.81603e-05 3.53311e-06 -2.59905e-05 -1.81603e-05 0.000158639 -2.59905e-05 0.000180993 3.53311e-06 -2.59905e-05 1.26882e-05 -3.96718e-05 -2.59905e-05 0.000180993 -3.96718e-05 0.00019655 0.000158639 -0.000916814 0.000180993 -0.000953932 -0.000916814 0.00428682 -0.000953932 0.00415547 0.000180993 -0.000953932 0.00019655 -0.000851635 -0.000953932 0.00415547 -0.000851635 0.00308509 1.26882e-05 -3.96718e-05 2.08513e-05 -4.83917e-05 -3.96718e-05 0.00019655 -4.83917e-05 0.000185438 2.08513e-05 -4.83917e-05 2.33075e-05 -4.59384e-05 -4.83917e-05 0.000185438 -4.59384e-05 0.000142708 0.00019655 -0.000851635 0.000185438 -0.000645114 -0.000851635 0.00308509 -0.000645114 0.00172525 0.000185438 -0.000645114 0.000142708 -0.000377348 -0.000645114 0.00172525 -0.000377348 0.000429505 -1.19217e-07 2.3682e-07 6.22991e-07 -1.90272e-06 2.3682e-07 -7.45979e-07 -1.90272e-06 9.22088e-06 6.22991e-07 -1.90272e-06 2.12256e-06 -9.15011e-06 -1.90272e-06 9.22088e-06 -9.15011e-06 5.39013e-05 -7.45979e-07 1.97679e-06 9.22088e-06 -3.90406e-05 1.97679e-06 -1.64426e-06 -3.90406e-05 0.000137125 9.22088e-06 -3.90406e-05 5.39013e-05 -0.000260408 -3.90406e-05 0.000137125 -0.000260408 0.00105095 2.12256e-06 -9.15011e-06 1.28372e-06 -1.57037e-05 -9.15011e-06 5.39013e-05 -1.57037e-05 0.00011901 1.28372e-06 -1.57037e-05 -3.53209e-07 -1.81603e-05 -1.57037e-05 0.00011901 -1.81603e-05 0.000158639 5.39013e-05 -0.000260408 0.00011901 -0.000651226 -0.000260408 0.00105095 -0.000651226 0.00292301 0.00011901 -0.000651226 0.000158639 -0.000916814 -0.000651226 0.00292301 -0.000916814 0.00428682 1.00793e-05 -1.13717e-05 8.05149e-06 -9.66193e-06 -1.13717e-05 -7.78235e-06 -9.66193e-06 -1.34273e-06 8.05149e-06 -9.66193e-06 4.5575e-06 -6.39183e-06 -9.66193e-06 -1.34273e-06 -6.39183e-06 6.99045e-06 -7.78235e-06 0.000233537 -1.34273e-06 0.000157509 0.000233537 -0.00179054 0.000157509 -0.00127731 -1.34273e-06 0.000157509 6.99045e-06 4.32267e-05 0.000157509 -0.00127731 4.32267e-05 -0.000482732 4.5575e-06 -6.39183e-06 1.13541e-06 -1.85727e-06 -6.39183e-06 6.99045e-06 -1.85727e-06 3.93096e-06 1.13541e-06 -1.85727e-06 -1.19217e-07 2.3682e-07 -1.85727e-06 3.93096e-06 2.3682e-07 -7.45979e-07 6.99045e-06 4.32267e-05 3.93096e-06 -2.00764e-06 4.32267e-05 -0.000482732 -2.00764e-06 -5.4477e-05 3.93096e-06 -2.00764e-06 -7.45979e-07 1.97679e-06 -2.00764e-06 -5.4477e-05 1.97679e-06 -1.64426e-06 2.33075e-05 -4.59384e-05 2.0565e-05 -3.5569e-05 -4.59384e-05 0.000142708 -3.5569e-05 8.65172e-05 2.0565e-05 -3.5569e-05 1.59346e-05 -2.38371e-05 -3.5569e-05 8.65172e-05 -2.38371e-05 3.6707e-05 0.000142708 -0.000377348 8.65172e-05 -0.000119048 -0.000377348 0.000429505 -0.000119048 -0.000607626 8.65172e-05 -0.000119048 3.6707e-05 8.0234e-05 -0.000119048 -0.000607626 8.0234e-05 -0.00132754 1.59346e-05 -2.38371e-05 1.21985e-05 -1.53631e-05 -2.38371e-05 3.6707e-05 -1.53631e-05 4.04557e-06 1.21985e-05 -1.53631e-05 1.00793e-05 -1.13717e-05 -1.53631e-05 4.04557e-06 -1.13717e-05 -7.78235e-06 3.6707e-05 8.0234e-05 4.04557e-06 0.00020266 8.0234e-05 -0.00132754 0.00020266 -0.00174724 4.04557e-06 0.00020266 -7.78235e-06 0.000233537 0.00020266 -0.00174724 0.000233537 -0.00179054 0.00428682 0.032567 0.00415547 0.0350304 0.032567 0.0377694 0.0350304 0.0401391 0.00415547 0.0350304 0.00308509 0.0359556 0.0350304 0.0401391 0.0359556 0.0398931 0.0377694 0.0366946 0.0401391 0.0390025 0.0366946 0.0368921 0.0390025 0.0392391 0.0401391 0.0390025 0.0398931 0.0388377 0.0390025 0.0392391 0.0388377 0.0391188 0.00308509 0.0359556 0.00172525 0.0372626 0.0359556 0.0398931 0.0372626 0.0396354 0.00172525 0.0372626 0.000429505 0.0385723 0.0372626 0.0396354 0.0385723 0.0393824 0.0398931 0.0388377 0.0396354 0.0387927 0.0388377 0.0391188 0.0387927 0.0390808 0.0396354 0.0387927 0.0393824 0.0388486 0.0387927 0.0390808 0.0388486 0.0390883 -1.64426e-06 -0.00032481 0.000137125 0.00163653 -0.00032481 -0.000328452 0.00163653 0.00181274 0.000137125 0.00163653 0.00105095 0.0100199 0.00163653 0.00181274 0.0100199 0.0113312 -0.000328452 -0.000325666 0.00181274 0.00176412 -0.000325666 -0.00032691 0.00176412 0.0017774 0.00181274 0.00176412 0.0113312 0.0110157 0.00176412 0.0017774 0.0110157 0.0110892 0.00105095 0.0100199 0.00292301 0.0235739 0.0100199 0.0113312 0.0235739 0.0271475 0.00292301 0.0235739 0.00428682 0.032567 0.0235739 0.0271475 0.032567 0.0377694 0.0113312 0.0110157 0.0271475 0.0263768 0.0110157 0.0110892 0.0263768 0.0265294 0.0271475 0.0263768 0.0377694 0.0366946 0.0263768 0.0265294 0.0366946 0.0368921 -0.00179054 0.0388356 -0.00127731 0.0287796 0.0388356 0.0368135 0.0287796 0.0273464 -0.00127731 0.0287796 -0.000482732 0.0128609 0.0287796 0.0273464 0.0128609 0.0123358 0.0368135 0.0370488 0.0273464 0.0275004 0.0370488 0.0370644 0.0275004 0.027519 0.0273464 0.0275004 0.0123358 0.0123693 0.0275004 0.027519 0.0123693 0.0123896 -0.000482732 0.0128609 -5.4477e-05 0.00231277 0.0128609 0.0123358 0.00231277 0.00226048 -5.4477e-05 0.00231277 -1.64426e-06 -0.00032481 0.00231277 0.00226048 -0.00032481 -0.000328452 0.0123358 0.0123693 0.00226048 0.00225387 0.0123693 0.0123896 0.00225387 0.00226169 0.00226048 0.00225387 -0.000328452 -0.000325666 0.00225387 0.00226169 -0.000325666 -0.00032691 0.000429505 0.0385723 -0.000607626 0.0395927 0.0385723 0.0393824 0.0395927 0.0391074 -0.000607626 0.0395927 -0.00132754 0.0403689 0.0395927 0.0391074 0.0403689 0.038964 0.0393824 0.0388486 0.0391074 0.0388897 0.0388486 0.0390883 0.0388897 0.0390509 0.0391074 0.0388897 0.038964 0.038998 0.0388897 0.0390509 0.038998 0.0390845 -0.00132754 0.0403689 -0.00174724 0.0409311 0.0403689 0.038964 0.0409311 0.0389835 -0.00174724 0.0409311 -0.00179054 0.0388356 0.0409311 0.0389835 0.0388356 0.0368135 0.038964 0.038998 0.0389835 0.0391749 0.038998 0.0390845 0.0391749 0.0392107 0.0389835 0.0391749 0.0368135 0.0370488 0.0391749 0.0392107 0.0370488 0.0370644 
