# vtk DataFile Version 3.0
#This file was generated by the deal.II library on 2023/3/8 at 18:39:22
ASCII
DATASET UNSTRUCTURED_GRID

FIELD FieldData 2
CYCLE 1 1 int
44
TIME 1 1 double
0.088
POINTS 1024 double
2 0 0
1.84776 1.22465e-16 0.765367
2.07612 0.382683 0
1.91809 0.382683 0.794497
1.84776 1.22465e-16 0.765367
1.41421 1.22465e-16 1.41421
1.91809 0.382683 0.794497
1.46804 0.382683 1.46804
2.07612 0.382683 0
1.91809 0.382683 0.794497
2.29289 0.707107 0
2.11836 0.707107 0.877452
1.91809 0.382683 0.794497
1.46804 0.382683 1.46804
2.11836 0.707107 0.877452
1.62132 0.707107 1.62132
1.41421 1.22465e-16 1.41421
0.765367 1.22465e-16 1.84776
1.46804 0.382683 1.46804
0.794497 0.382683 1.91809
0.765367 1.22465e-16 1.84776
0 0 2
0.794497 0.382683 1.91809
1.27126e-16 0.382683 2.07612
1.46804 0.382683 1.46804
0.794497 0.382683 1.91809
1.62132 0.707107 1.62132
0.877452 0.707107 2.11836
0.794497 0.382683 1.91809
1.27126e-16 0.382683 2.07612
0.877452 0.707107 2.11836
1.40399e-16 0.707107 2.29289
2.29289 0.707107 0
2.11836 0.707107 0.877452
2.61732 0.92388 0
2.41809 0.92388 1.0016
2.11836 0.707107 0.877452
1.62132 0.707107 1.62132
2.41809 0.92388 1.0016
1.85072 0.92388 1.85072
2.61732 0.92388 0
2.41809 0.92388 1.0016
3 1 0
2.77164 1 1.14805
2.41809 0.92388 1.0016
1.85072 0.92388 1.85072
2.77164 1 1.14805
2.12132 1 2.12132
1.62132 0.707107 1.62132
0.877452 0.707107 2.11836
1.85072 0.92388 1.85072
1.0016 0.92388 2.41809
0.877452 0.707107 2.11836
1.40399e-16 0.707107 2.29289
1.0016 0.92388 2.41809
1.60264e-16 0.92388 2.61732
1.85072 0.92388 1.85072
1.0016 0.92388 2.41809
2.12132 1 2.12132
1.14805 1 2.77164
1.0016 0.92388 2.41809
1.60264e-16 0.92388 2.61732
1.14805 1 2.77164
0 1 3
3 -1 0
2.77164 -1 1.14805
2.61732 -0.92388 0
2.41809 -0.92388 1.0016
2.77164 -1 1.14805
2.12132 -1 2.12132
2.41809 -0.92388 1.0016
1.85072 -0.92388 1.85072
2.61732 -0.92388 0
2.41809 -0.92388 1.0016
2.29289 -0.707107 0
2.11836 -0.707107 0.877452
2.41809 -0.92388 1.0016
1.85072 -0.92388 1.85072
2.11836 -0.707107 0.877452
1.62132 -0.707107 1.62132
2.12132 -1 2.12132
1.14805 -1 2.77164
1.85072 -0.92388 1.85072
1.0016 -0.92388 2.41809
1.14805 -1 2.77164
0 -1 3
1.0016 -0.92388 2.41809
1.60264e-16 -0.92388 2.61732
1.85072 -0.92388 1.85072
1.0016 -0.92388 2.41809
1.62132 -0.707107 1.62132
0.877452 -0.707107 2.11836
1.0016 -0.92388 2.41809
1.60264e-16 -0.92388 2.61732
0.877452 -0.707107 2.11836
1.40399e-16 -0.707107 2.29289
2.29289 -0.707107 0
2.11836 -0.707107 0.877452
2.07612 -0.382683 0
1.91809 -0.382683 0.794497
2.11836 -0.707107 0.877452
1.62132 -0.707107 1.62132
1.91809 -0.382683 0.794497
1.46804 -0.382683 1.46804
2.07612 -0.382683 0
1.91809 -0.382683 0.794497
2 0 0
1.84776 1.22465e-16 0.765367
1.91809 -0.382683 0.794497
1.46804 -0.382683 1.46804
1.84776 1.22465e-16 0.765367
1.41421 1.22465e-16 1.41421
1.62132 -0.707107 1.62132
0.877452 -0.707107 2.11836
1.46804 -0.382683 1.46804
0.794497 -0.382683 1.91809
0.877452 -0.707107 2.11836
1.40399e-16 -0.707107 2.29289
0.794497 -0.382683 1.91809
1.27126e-16 -0.382683 2.07612
1.46804 -0.382683 1.46804
0.794497 -0.382683 1.91809
1.41421 1.22465e-16 1.41421
0.765367 1.22465e-16 1.84776
0.794497 -0.382683 1.91809
1.27126e-16 -0.382683 2.07612
0.765367 1.22465e-16 1.84776
0 0 2
4 0 0
3.69552 0 1.53073
3.92388 -0.382683 0
3.62519 -0.382683 1.5016
3.69552 0 1.53073
2.82843 0 2.82843
3.62519 -0.382683 1.5016
2.7746 -0.382683 2.7746
3.92388 -0.382683 0
3.62519 -0.382683 1.5016
3.70711 -0.707107 0
3.42492 -0.707107 1.41865
3.62519 -0.382683 1.5016
2.7746 -0.382683 2.7746
3.42492 -0.707107 1.41865
2.62132 -0.707107 2.62132
2.82843 0 2.82843
1.53073 0 3.69552
2.7746 -0.382683 2.7746
1.5016 -0.382683 3.62519
1.53073 0 3.69552
0 0 4
1.5016 -0.382683 3.62519
2.40268e-16 -0.382683 3.92388
2.7746 -0.382683 2.7746
1.5016 -0.382683 3.62519
2.62132 -0.707107 2.62132
1.41865 -0.707107 3.42492
1.5016 -0.382683 3.62519
2.40268e-16 -0.382683 3.92388
1.41865 -0.707107 3.42492
2.26995e-16 -0.707107 3.70711
3.70711 -0.707107 0
3.42492 -0.707107 1.41865
3.38268 -0.92388 0
3.12519 -0.92388 1.2945
3.42492 -0.707107 1.41865
2.62132 -0.707107 2.62132
3.12519 -0.92388 1.2945
2.39192 -0.92388 2.39192
3.38268 -0.92388 0
3.12519 -0.92388 1.2945
3 -1 0
2.77164 -1 1.14805
3.12519 -0.92388 1.2945
2.39192 -0.92388 2.39192
2.77164 -1 1.14805
2.12132 -1 2.12132
2.62132 -0.707107 2.62132
1.41865 -0.707107 3.42492
2.39192 -0.92388 2.39192
1.2945 -0.92388 3.12519
1.41865 -0.707107 3.42492
2.26995e-16 -0.707107 3.70711
1.2945 -0.92388 3.12519
2.0713e-16 -0.92388 3.38268
2.39192 -0.92388 2.39192
1.2945 -0.92388 3.12519
2.12132 -1 2.12132
1.14805 -1 2.77164
1.2945 -0.92388 3.12519
2.0713e-16 -0.92388 3.38268
1.14805 -1 2.77164
0 -1 3
3 1 0
2.77164 1 1.14805
3.38268 0.92388 0
3.12519 0.92388 1.2945
2.77164 1 1.14805
2.12132 1 2.12132
3.12519 0.92388 1.2945
2.39192 0.92388 2.39192
3.38268 0.92388 0
3.12519 0.92388 1.2945
3.70711 0.707107 0
3.42492 0.707107 1.41865
3.12519 0.92388 1.2945
2.39192 0.92388 2.39192
3.42492 0.707107 1.41865
2.62132 0.707107 2.62132
2.12132 1 2.12132
1.14805 1 2.77164
2.39192 0.92388 2.39192
1.2945 0.92388 3.12519
1.14805 1 2.77164
0 1 3
1.2945 0.92388 3.12519
2.0713e-16 0.92388 3.38268
2.39192 0.92388 2.39192
1.2945 0.92388 3.12519
2.62132 0.707107 2.62132
1.41865 0.707107 3.42492
1.2945 0.92388 3.12519
2.0713e-16 0.92388 3.38268
1.41865 0.707107 3.42492
2.26995e-16 0.707107 3.70711
3.70711 0.707107 0
3.42492 0.707107 1.41865
3.92388 0.382683 0
3.62519 0.382683 1.5016
3.42492 0.707107 1.41865
2.62132 0.707107 2.62132
3.62519 0.382683 1.5016
2.7746 0.382683 2.7746
3.92388 0.382683 0
3.62519 0.382683 1.5016
4 0 0
3.69552 0 1.53073
3.62519 0.382683 1.5016
2.7746 0.382683 2.7746
3.69552 0 1.53073
2.82843 0 2.82843
2.62132 0.707107 2.62132
1.41865 0.707107 3.42492
2.7746 0.382683 2.7746
1.5016 0.382683 3.62519
1.41865 0.707107 3.42492
2.26995e-16 0.707107 3.70711
1.5016 0.382683 3.62519
2.40268e-16 0.382683 3.92388
2.7746 0.382683 2.7746
1.5016 0.382683 3.62519
2.82843 0 2.82843
1.53073 0 3.69552
1.5016 0.382683 3.62519
2.40268e-16 0.382683 3.92388
1.53073 0 3.69552
0 0 4
0 0 2
-0.765367 1.22465e-16 1.84776
1.27126e-16 0.382683 2.07612
-0.794497 0.382683 1.91809
-0.765367 1.22465e-16 1.84776
-1.41421 1.22465e-16 1.41421
-0.794497 0.382683 1.91809
-1.46804 0.382683 1.46804
1.27126e-16 0.382683 2.07612
-0.794497 0.382683 1.91809
1.40399e-16 0.707107 2.29289
-0.877452 0.707107 2.11836
-0.794497 0.382683 1.91809
-1.46804 0.382683 1.46804
-0.877452 0.707107 2.11836
-1.62132 0.707107 1.62132
-1.41421 1.22465e-16 1.41421
-1.84776 1.22465e-16 0.765367
-1.46804 0.382683 1.46804
-1.91809 0.382683 0.794497
-1.84776 1.22465e-16 0.765367
-2 0 0
-1.91809 0.382683 0.794497
-2.07612 0.382683 2.54251e-16
-1.46804 0.382683 1.46804
-1.91809 0.382683 0.794497
-1.62132 0.707107 1.62132
-2.11836 0.707107 0.877452
-1.91809 0.382683 0.794497
-2.07612 0.382683 2.54251e-16
-2.11836 0.707107 0.877452
-2.29289 0.707107 2.80798e-16
1.40399e-16 0.707107 2.29289
-0.877452 0.707107 2.11836
1.60264e-16 0.92388 2.61732
-1.0016 0.92388 2.41809
-0.877452 0.707107 2.11836
-1.62132 0.707107 1.62132
-1.0016 0.92388 2.41809
-1.85072 0.92388 1.85072
1.60264e-16 0.92388 2.61732
-1.0016 0.92388 2.41809
0 1 3
-1.14805 1 2.77164
-1.0016 0.92388 2.41809
-1.85072 0.92388 1.85072
-1.14805 1 2.77164
-2.12132 1 2.12132
-1.62132 0.707107 1.62132
-2.11836 0.707107 0.877452
-1.85072 0.92388 1.85072
-2.41809 0.92388 1.0016
-2.11836 0.707107 0.877452
-2.29289 0.707107 2.80798e-16
-2.41809 0.92388 1.0016
-2.61732 0.92388 3.20529e-16
-1.85072 0.92388 1.85072
-2.41809 0.92388 1.0016
-2.12132 1 2.12132
-2.77164 1 1.14805
-2.41809 0.92388 1.0016
-2.61732 0.92388 3.20529e-16
-2.77164 1 1.14805
-3 1 0
0 -1 3
-1.14805 -1 2.77164
1.60264e-16 -0.92388 2.61732
-1.0016 -0.92388 2.41809
-1.14805 -1 2.77164
-2.12132 -1 2.12132
-1.0016 -0.92388 2.41809
-1.85072 -0.92388 1.85072
1.60264e-16 -0.92388 2.61732
-1.0016 -0.92388 2.41809
1.40399e-16 -0.707107 2.29289
-0.877452 -0.707107 2.11836
-1.0016 -0.92388 2.41809
-1.85072 -0.92388 1.85072
-0.877452 -0.707107 2.11836
-1.62132 -0.707107 1.62132
-2.12132 -1 2.12132
-2.77164 -1 1.14805
-1.85072 -0.92388 1.85072
-2.41809 -0.92388 1.0016
-2.77164 -1 1.14805
-3 -1 0
-2.41809 -0.92388 1.0016
-2.61732 -0.92388 3.20529e-16
-1.85072 -0.92388 1.85072
-2.41809 -0.92388 1.0016
-1.62132 -0.707107 1.62132
-2.11836 -0.707107 0.877452
-2.41809 -0.92388 1.0016
-2.61732 -0.92388 3.20529e-16
-2.11836 -0.707107 0.877452
-2.29289 -0.707107 2.80798e-16
1.40399e-16 -0.707107 2.29289
-0.877452 -0.707107 2.11836
1.27126e-16 -0.382683 2.07612
-0.794497 -0.382683 1.91809
-0.877452 -0.707107 2.11836
-1.62132 -0.707107 1.62132
-0.794497 -0.382683 1.91809
-1.46804 -0.382683 1.46804
1.27126e-16 -0.382683 2.07612
-0.794497 -0.382683 1.91809
0 0 2
-0.765367 1.22465e-16 1.84776
-0.794497 -0.382683 1.91809
-1.46804 -0.382683 1.46804
-0.765367 1.22465e-16 1.84776
-1.41421 1.22465e-16 1.41421
-1.62132 -0.707107 1.62132
-2.11836 -0.707107 0.877452
-1.46804 -0.382683 1.46804
-1.91809 -0.382683 0.794497
-2.11836 -0.707107 0.877452
-2.29289 -0.707107 2.80798e-16
-1.91809 -0.382683 0.794497
-2.07612 -0.382683 2.54251e-16
-1.46804 -0.382683 1.46804
-1.91809 -0.382683 0.794497
-1.41421 1.22465e-16 1.41421
-1.84776 1.22465e-16 0.765367
-1.91809 -0.382683 0.794497
-2.07612 -0.382683 2.54251e-16
-1.84776 1.22465e-16 0.765367
-2 0 0
0 0 4
-1.53073 0 3.69552
2.40268e-16 -0.382683 3.92388
-1.5016 -0.382683 3.62519
-1.53073 0 3.69552
-2.82843 0 2.82843
-1.5016 -0.382683 3.62519
-2.7746 -0.382683 2.7746
2.40268e-16 -0.382683 3.92388
-1.5016 -0.382683 3.62519
2.26995e-16 -0.707107 3.70711
-1.41865 -0.707107 3.42492
-1.5016 -0.382683 3.62519
-2.7746 -0.382683 2.7746
-1.41865 -0.707107 3.42492
-2.62132 -0.707107 2.62132
-2.82843 0 2.82843
-3.69552 0 1.53073
-2.7746 -0.382683 2.7746
-3.62519 -0.382683 1.5016
-3.69552 0 1.53073
-4 0 0
-3.62519 -0.382683 1.5016
-3.92388 -0.382683 4.80537e-16
-2.7746 -0.382683 2.7746
-3.62519 -0.382683 1.5016
-2.62132 -0.707107 2.62132
-3.42492 -0.707107 1.41865
[...]
POINT_DATA 1024
SCALARS U double 1
LOOKUP_TABLE default
0.0372923 0.0370631 0.0392987 0.0390372 0.0370631 0.0381391 0.0390372 0.0401499 0.0392987 0.0390372 0.0391071 0.0388177 0.0390372 0.0401499 0.0388177 0.0398133 0.0381391 0.0333751 0.0401499 0.0355532 0.0333751 0.00386449 0.0355532 0.00367958 0.0401499 0.0355532 0.0398133 0.036399 0.0355532 0.00367958 0.036399 0.00262281 0.0391071 0.0388177 0.0390812 0.0388037 0.0388177 0.0398133 0.0388037 0.0395553 0.0390812 0.0388037 0.0390837 0.0388689 0.0388037 0.0395553 0.0388689 0.039295 0.0398133 0.036399 0.0395553 0.0376848 0.036399 0.00262281 0.0376848 0.00130362 0.0395553 0.0376848 0.039295 0.0389444 0.0376848 0.00130362 0.0389444 5.89528e-05 -0.000428838 -0.000427146 0.00147759 0.00146634 -0.000427146 -0.000430516 0.00146634 0.00150398 0.00147759 0.00146634 0.0107864 0.0107099 0.00146634 0.00150398 0.0107099 0.0110049 -0.000430516 -0.000428474 0.00150398 0.00137932 -0.000428474 2.64646e-07 0.00137932 9.49137e-05 0.00150398 0.00137932 0.0110049 0.0098789 0.00137932 9.49137e-05 0.0098789 0.000886679 0.0107864 0.0107099 0.0269063 0.0267323 0.0107099 0.0110049 0.0267323 0.0274996 0.0269063 0.0267323 0.0372923 0.0370631 0.0267323 0.0274996 0.0370631 0.0381391 0.0110049 0.0098789 0.0274996 0.0242449 0.0098789 0.000886679 0.0242449 0.00261887 0.0274996 0.0242449 0.0381391 0.0333751 0.0242449 0.00261887 0.0333751 0.00386449 0.0374084 0.0374257 0.0278343 0.02784 0.0374257 0.0370929 0.02784 0.027613 0.0278343 0.02784 0.0120244 0.0120147 0.02784 0.027613 0.0120147 0.0119523 0.0370929 0.0394423 0.027613 0.0292945 0.0394423 -0.00204242 0.0292945 -0.00146895 0.027613 0.0292945 0.0119523 0.0125619 0.0292945 -0.00146895 0.0125619 -0.000545318 0.0120244 0.0120147 0.00187355 0.00186802 0.0120147 0.0119523 0.00186802 0.00187039 0.00187355 0.00186802 -0.000428838 -0.000427146 0.00186802 0.00187039 -0.000427146 -0.000430516 0.0119523 0.0125619 0.00187039 0.00192478 0.0125619 -0.000545318 0.00192478 -5.37492e-05 0.00187039 0.00192478 -0.000430516 -0.000428474 0.00192478 -5.37492e-05 -0.000428474 2.64646e-07 0.0390837 0.0388689 0.0390422 0.0389132 0.0388689 0.039295 0.0389132 0.0390206 0.0390422 0.0389132 0.0390534 0.0390015 0.0389132 0.0390206 0.0390015 0.0388614 0.039295 0.0389444 0.0390206 0.0399133 0.0389444 5.89528e-05 0.0399133 -0.000927223 0.0390206 0.0399133 0.0388614 0.0406274 0.0399133 -0.000927223 0.0406274 -0.00160588 0.0390534 0.0390015 0.0392437 0.0392427 0.0390015 0.0388614 0.0392427 0.0389492 0.0392437 0.0392427 0.0374084 0.0374257 0.0392427 0.0389492 0.0374257 0.0370929 0.0388614 0.0406274 0.0389492 0.0412328 0.0406274 -0.00160588 0.0412328 -0.00200441 0.0389492 0.0412328 0.0370929 0.0394423 0.0412328 -0.00200441 0.0394423 -0.00204242 0.00386449 -0.000900152 0.00367958 -0.000917171 -0.000900152 0.000173809 -0.000917171 0.000191248 0.00367958 -0.000917171 0.00262281 -0.000790061 -0.000917171 0.000191248 -0.000790061 0.00019643 0.000173809 -2.59017e-05 0.000191248 -3.29395e-05 -2.59017e-05 4.10944e-06 -3.29395e-05 7.9136e-06 0.000191248 -3.29395e-05 0.00019643 -4.37434e-05 -3.29395e-05 7.9136e-06 -4.37434e-05 1.5954e-05 0.00262281 -0.000790061 0.00130362 -0.000564153 -0.000790061 0.00019643 -0.000564153 0.000174472 0.00130362 -0.000564153 5.89528e-05 -0.000288305 -0.000564153 0.000174472 -0.000288305 0.000124317 0.00019643 -4.37434e-05 0.000174472 -4.86487e-05 -4.37434e-05 1.5954e-05 -4.86487e-05 2.22082e-05 0.000174472 -4.86487e-05 0.000124317 -4.29104e-05 -4.86487e-05 2.22082e-05 -4.29104e-05 2.27228e-05 2.64646e-07 2.28554e-06 9.49137e-05 -2.97034e-05 2.28554e-06 -9.84038e-07 -2.97034e-05 7.57651e-06 9.49137e-05 -2.97034e-05 0.000886679 -0.000239218 -2.97034e-05 7.57651e-06 -0.000239218 5.39889e-05 -9.84038e-07 3.3146e-07 7.57651e-06 -1.72886e-06 3.3146e-07 -1.73753e-07 -1.72886e-06 6.43528e-07 7.57651e-06 -1.72886e-06 5.39889e-05 -1.05371e-05 -1.72886e-06 6.43528e-07 -1.05371e-05 3.1983e-06 0.000886679 -0.000239218 0.00261887 -0.00063597 -0.000239218 5.39889e-05 -0.00063597 0.00012889 0.00261887 -0.00063597 0.00386449 -0.000900152 -0.00063597 0.00012889 -0.000900152 0.000173809 5.39889e-05 -1.05371e-05 0.00012889 -2.11109e-05 -1.05371e-05 3.1983e-06 -2.11109e-05 4.50018e-06 0.00012889 -2.11109e-05 0.000173809 -2.59017e-05 -2.11109e-05 4.50018e-06 -2.59017e-05 4.10944e-06 -0.00204242 0.000308664 -0.00146895 0.000213874 0.000308664 -2.86304e-05 0.000213874 -1.67911e-05 -0.00146895 0.000213874 -0.000545318 6.50251e-05 0.000213874 -1.67911e-05 6.50251e-05 4.42423e-07 -2.86304e-05 -5.6162e-06 -1.67911e-05 -5.45707e-06 -5.6162e-06 7.37174e-06 -5.45707e-06 6.09675e-06 -1.67911e-05 -5.45707e-06 4.42423e-07 -4.49539e-06 -5.45707e-06 6.09675e-06 -4.49539e-06 3.64215e-06 -0.000545318 6.50251e-05 -5.37492e-05 7.90712e-07 6.50251e-05 4.42423e-07 7.90712e-07 2.62624e-06 -5.37492e-05 7.90712e-07 2.64646e-07 2.28554e-06 7.90712e-07 2.62624e-06 2.28554e-06 -9.84038e-07 4.42423e-07 -4.49539e-06 2.62624e-06 -1.38511e-06 -4.49539e-06 3.64215e-06 -1.38511e-06 8.7798e-07 2.62624e-06 -1.38511e-06 -9.84038e-07 3.3146e-07 -1.38511e-06 8.7798e-07 3.3146e-07 -1.73753e-07 5.89528e-05 -0.000288305 -0.000927223 -3.14512e-05 -0.000288305 0.000124317 -3.14512e-05 6.4903e-05 -0.000927223 -3.14512e-05 -0.00160588 0.000162574 -3.14512e-05 6.4903e-05 0.000162574 1.44859e-05 0.000124317 -4.29104e-05 6.4903e-05 -3.05808e-05 -4.29104e-05 2.27228e-05 -3.05808e-05 1.86464e-05 6.4903e-05 -3.05808e-05 1.44859e-05 -1.80006e-05 -3.05808e-05 1.86464e-05 -1.80006e-05 1.33331e-05 -0.00160588 0.000162574 -0.00200441 0.000281139 0.000162574 1.44859e-05 0.000281139 -1.79452e-05 -0.00200441 0.000281139 -0.00204242 0.000308664 0.000281139 -1.79452e-05 0.000308664 -2.86304e-05 1.44859e-05 -1.80006e-05 -1.79452e-05 -9.28004e-06 -1.80006e-05 1.33331e-05 -9.28004e-06 9.34232e-06 -1.79452e-05 -9.28004e-06 -2.86304e-05 -5.6162e-06 -9.28004e-06 9.34232e-06 -5.6162e-06 7.37174e-06 4.10944e-06 -2.59024e-05 7.9136e-06 -3.2937e-05 -2.59024e-05 0.000173808 -3.2937e-05 0.000191245 7.9136e-06 -3.2937e-05 1.5954e-05 -4.37442e-05 -3.2937e-05 0.000191245 -4.37442e-05 0.000196426 0.000173808 -0.000900148 0.000191245 -0.000917169 -0.000900148 0.00386449 -0.000917169 0.00367958 0.000191245 -0.000917169 0.000196426 -0.000790062 -0.000917169 0.00367958 -0.000790062 0.00262282 1.5954e-05 -4.37442e-05 2.22082e-05 -4.86495e-05 -4.37442e-05 0.000196426 -4.86495e-05 0.000174475 2.22082e-05 -4.86495e-05 2.27228e-05 -4.29096e-05 -4.86495e-05 0.000174475 -4.29096e-05 0.000124318 0.000196426 -0.000790062 0.000174475 -0.000564153 -0.000790062 0.00262282 -0.000564153 0.00130362 0.000174475 -0.000564153 0.000124318 -0.000288306 -0.000564153 0.00130362 -0.000288306 5.89512e-05 -1.73753e-07 3.33394e-07 6.43528e-07 -1.72666e-06 3.33394e-07 -9.84497e-07 -1.72666e-06 7.57641e-06 6.43528e-07 -1.72666e-06 3.1983e-06 -1.05394e-05 -1.72666e-06 7.57641e-06 -1.05394e-05 5.39917e-05 -9.84497e-07 2.28657e-06 7.57641e-06 -2.96991e-05 2.28657e-06 2.65438e-07 -2.96991e-05 9.49166e-05 7.57641e-06 -2.96991e-05 5.39917e-05 -0.000239217 -2.96991e-05 9.49166e-05 -0.000239217 0.000886672 3.1983e-06 -1.05394e-05 4.50018e-06 -2.11107e-05 -1.05394e-05 5.39917e-05 -2.11107e-05 0.000128886 4.50018e-06 -2.11107e-05 4.10944e-06 -2.59024e-05 -2.11107e-05 0.000128886 -2.59024e-05 0.000173808 5.39917e-05 -0.000239217 0.000128886 -0.000635965 -0.000239217 0.000886672 -0.000635965 0.00261886 0.000128886 -0.000635965 0.000173808 -0.000900148 -0.000635965 0.00261886 -0.000900148 0.00386449 7.37174e-06 -5.61777e-06 6.09675e-06 -5.45671e-06 -5.61777e-06 -2.86265e-05 -5.45671e-06 -1.67884e-05 6.09675e-06 -5.45671e-06 3.64215e-06 -4.49593e-06 -5.45671e-06 -1.67884e-05 -4.49593e-06 4.4472e-07 -2.86265e-05 0.00030866 -1.67884e-05 0.00021387 0.00030866 -0.00204242 0.00021387 -0.00146894 -1.67884e-05 0.00021387 4.4472e-07 6.50239e-05 0.00021387 -0.00146894 6.50239e-05 -0.000545319 3.64215e-06 -4.49593e-06 8.7798e-07 -1.38541e-06 -4.49593e-06 4.4472e-07 -1.38541e-06 2.62632e-06 8.7798e-07 -1.38541e-06 -1.73753e-07 3.33394e-07 -1.38541e-06 2.62632e-06 3.33394e-07 -9.84497e-07 4.4472e-07 6.50239e-05 2.62632e-06 7.91045e-07 6.50239e-05 -0.000545319 7.91045e-07 -5.37502e-05 2.62632e-06 7.91045e-07 -9.84497e-07 2.28657e-06 7.91045e-07 -5.37502e-05 2.28657e-06 2.65438e-07 2.27228e-05 -4.29096e-05 1.86464e-05 -3.05817e-05 -4.29096e-05 0.000124318 -3.05817e-05 6.49051e-05 1.86464e-05 -3.05817e-05 1.33331e-05 -1.80028e-05 -3.05817e-05 6.49051e-05 -1.80028e-05 1.44919e-05 0.000124318 -0.000288306 6.49051e-05 -3.14553e-05 -0.000288306 5.89512e-05 -3.14553e-05 -0.000927228 6.49051e-05 -3.14553e-05 1.44919e-05 0.000162574 -3.14553e-05 -0.000927228 0.000162574 -0.00160589 1.33331e-05 -1.80028e-05 9.34232e-06 -9.281e-06 -1.80028e-05 1.44919e-05 -9.281e-06 -1.79408e-05 9.34232e-06 -9.281e-06 7.37174e-06 -5.61777e-06 -9.281e-06 -1.79408e-05 -5.61777e-06 -2.86265e-05 1.44919e-05 0.000162574 -1.79408e-05 0.000281135 0.000162574 -0.00160589 0.000281135 -0.00200442 -1.79408e-05 0.000281135 -2.86265e-05 0.00030866 0.000281135 -0.00200442 0.00030866 -0.00204242 0.00386449 0.0333751 0.00367958 0.0355532 0.0333751 0.0381391 0.0355532 0.0401499 0.00367958 0.0355532 0.00262282 0.0363991 0.0355532 0.0401499 0.0363991 0.0398133 0.0381391 0.0370631 0.0401499 0.0390372 0.0370631 0.0372923 0.0390372 0.0392987 0.0401499 0.0390372 0.0398133 0.0388177 0.0390372 0.0392987 0.0388177 0.0391071 0.00262282 0.0363991 0.00130362 0.0376848 0.0363991 0.0398133 0.0376848 0.0395553 0.00130362 0.0376848 5.89512e-05 0.0389444 0.0376848 0.0395553 0.0389444 0.039295 0.0398133 0.0388177 0.0395553 0.0388037 0.0388177 0.0391071 0.0388037 0.0390812 0.0395553 0.0388037 0.039295 0.0388689 0.0388037 0.0390812 0.0388689 0.0390837 2.65438e-07 -0.000428468 9.49166e-05 0.00137931 -0.000428468 -0.000430518 0.00137931 0.00150399 9.49166e-05 0.00137931 0.000886672 0.0098789 0.00137931 0.00150399 0.0098789 0.011005 -0.000430518 -0.000427151 0.00150399 0.00146633 -0.000427151 -0.000428838 0.00146633 0.00147759 0.00150399 0.00146633 0.011005 0.0107099 0.00146633 0.00147759 0.0107099 0.0107864 0.000886672 0.0098789 0.00261886 0.0242449 0.0098789 0.011005 0.0242449 0.0274996 0.00261886 0.0242449 0.00386449 0.0333751 0.0242449 0.0274996 0.0333751 0.0381391 0.011005 0.0107099 0.0274996 0.0267324 0.0107099 0.0107864 0.0267324 0.0269063 0.0274996 0.0267324 0.0381391 0.0370631 0.0267324 0.0269063 0.0370631 0.0372923 -0.00204242 0.0394423 -0.00146894 0.0292945 0.0394423 0.0370929 0.0292945 0.027613 -0.00146894 0.0292945 -0.000545319 0.0125619 0.0292945 0.027613 0.0125619 0.0119523 0.0370929 0.0374257 0.027613 0.02784 0.0374257 0.0374084 0.02784 0.0278343 0.027613 0.02784 0.0119523 0.0120147 0.02784 0.0278343 0.0120147 0.0120244 -0.000545319 0.0125619 -5.37502e-05 0.00192478 0.0125619 0.0119523 0.00192478 0.00187038 -5.37502e-05 0.00192478 2.65438e-07 -0.000428468 0.00192478 0.00187038 -0.000428468 -0.000430518 0.0119523 0.0120147 0.00187038 0.00186802 0.0120147 0.0120244 0.00186802 0.00187355 0.00187038 0.00186802 -0.000430518 -0.000427151 0.00186802 0.00187355 -0.000427151 -0.000428838 5.89512e-05 0.0389444 -0.000927228 0.0399133 0.0389444 0.039295 0.0399133 0.0390206 -0.000927228 0.0399133 -0.00160589 0.0406273 0.0399133 0.0390206 0.0406273 0.0388614 0.039295 0.0388689 0.0390206 0.0389132 0.0388689 0.0390837 0.0389132 0.0390422 0.0390206 0.0389132 0.0388614 0.0390015 0.0389132 0.0390422 0.0390015 0.0390534 -0.00160589 0.0406273 -0.00200442 0.0412328 0.0406273 0.0388614 0.0412328 0.0389492 -0.00200442 0.0412328 -0.00204242 0.0394423 0.0412328 0.0389492 0.0394423 0.0370929 0.0388614 0.0390015 0.0389492 0.0392427 0.0390015 0.0390534 0.0392427 0.0392437 0.0389492 0.0392427 0.0370929 0.0374257 0.0392427 0.0392437 0.0374257 0.0374084 
