# vtk DataFile Version 3.0
#This file was generated by the deal.II library on 2023/3/8 at 18:39:26
ASCII
DATASET UNSTRUCTURED_GRID

FIELD FieldData 2
CYCLE 1 1 int
211
TIME 1 1 double
0.422
POINTS 1024 double
2 0 0
1.84776 1.22465e-16 0.765367
2.07612 0.382683 0
1.91809 0.382683 0.794497
1.84776 1.22465e-16 0.765367
1.41421 1.22465e-16 1.41421
1.91809 0.382683 0.794497
1.46804 0.382683 1.46804
2.07612 0.382683 0
1.91809 0.382683 0.794497
2.29289 0.707107 0
2.11836 0.707107 0.877452
1.91809 0.382683 0.794497
1.46804 0.382683 1.46804
2.11836 0.707107 0.877452
1.62132 0.707107 1.62132
1.41421 1.22465e-16 1.41421
0.765367 1.22465e-16 1.84776
1.46804 0.382683 1.46804
0.794497 0.382683 1.91809
0.765367 1.22465e-16 1.84776
0 0 2
0.794497 0.382683 1.91809
1.27126e-16 0.382683 2.07612
1.46804 0.382683 1.46804
0.794497 0.382683 1.91809
1.62132 0.707107 1.62132
0.877452 0.707107 2.11836
0.794497 0.382683 1.91809
1.27126e-16 0.382683 2.07612
0.877452 0.707107 2.11836
1.40399e-16 0.707107 2.29289
2.29289 0.707107 0
2.11836 0.707107 0.877452
2.61732 0.92388 0
2.41809 0.92388 1.0016
2.11836 0.707107 0.877452
1.62132 0.707107 1.62132
2.41809 0.92388 1.0016
1.85072 0.92388 1.85072
2.61732 0.92388 0
2.41809 0.92388 1.0016
3 1 0
2.77164 1 1.14805
2.41809 0.92388 1.0016
1.85072 0.92388 1.85072
2.77164 1 1.14805
2.12132 1 2.12132
1.62132 0.707107 1.62132
0.877452 0.707107 2.11836
1.85072 0.92388 1.85072
1.0016 0.92388 2.41809
0.877452 0.707107 2.11836
1.40399e-16 0.707107 2.29289
1.0016 0.92388 2.41809
1.60264e-16 0.92388 2.61732
1.85072 0.92388 1.85072
1.0016 0.92388 2.41809
2.12132 1 2.12132
1.14805 1 2.77164
1.0016 0.92388 2.41809
1.60264e-16 0.92388 2.61732
1.14805 1 2.77164
0 1 3
3 -1 0
2.77164 -1 1.14805
2.61732 -0.92388 0
2.41809 -0.92388 1.0016
2.77164 -1 1.14805
2.12132 -1 2.12132
2.41809 -0.92388 1.0016
1.85072 -0.92388 1.85072
2.61732 -0.92388 0
2.41809 -0.92388 1.0016
2.29289 -0.707107 0
2.11836 -0.707107 0.877452
2.41809 -0.92388 1.0016
1.85072 -0.92388 1.85072
2.11836 -0.707107 0.877452
1.62132 -0.707107 1.62132
2.12132 -1 2.12132
1.14805 -1 2.77164
1.85072 -0.92388 1.85072
1.0016 -0.92388 2.41809
1.14805 -1 2.77164
0 -1 3
1.0016 -0.92388 2.41809
1.60264e-16 -0.92388 2.61732
1.85072 -0.92388 1.85072
1.0016 -0.92388 2.41809
1.62132 -0.707107 1.62132
0.877452 -0.707107 2.11836
1.0016 -0.92388 2.41809
1.60264e-16 -0.92388 2.61732
0.877452 -0.707107 2.11836
1.40399e-16 -0.707107 2.29289
2.29289 -0.707107 0
2.11836 -0.707107 0.877452
2.07612 -0.382683 0
1.91809 -0.382683 0.794497
2.11836 -0.707107 0.877452
1.62132 -0.707107 1.62132
1.91809 -0.382683 0.794497
1.46804 -0.382683 1.46804
2.07612 -0.382683 0
1.91809 -0.382683 0.794497
2 0 0
1.84776 1.22465e-16 0.765367
1.91809 -0.382683 0.794497
1.46804 -0.382683 1.46804
1.84776 1.22465e-16 0.765367
1.41421 1.22465e-16 1.41421
1.62132 -0.707107 1.62132
0.877452 -0.707107 2.11836
1.46804 -0.382683 1.46804
0.794497 -0.382683 1.91809
0.877452 -0.707107 2.11836
1.40399e-16 -0.707107 2.29289
0.794497 -0.382683 1.91809
1.27126e-16 -0.382683 2.07612
1.46804 -0.382683 1.46804
0.794497 -0.382683 1.91809
1.41421 1.22465e-16 1.41421
0.765367 1.22465e-16 1.84776
0.794497 -0.382683 1.91809
1.27126e-16 -0.382683 2.07612
0.765367 1.22465e-16 1.84776
0 0 2
4 0 0
3.69552 0 1.53073
3.92388 -0.382683 0
3.62519 -0.382683 1.5016
3.69552 0 1.53073
2.82843 0 2.82843
3.62519 -0.382683 1.5016
2.7746 -0.382683 2.7746
3.92388 -0.382683 0
3.62519 -0.382683 1.5016
3.70711 -0.707107 0
3.42492 -0.707107 1.41865
3.62519 -0.382683 1.5016
2.7746 -0.382683 2.7746
3.42492 -0.707107 1.41865
2.62132 -0.707107 2.62132
2.82843 0 2.82843
1.53073 0 3.69552
2.7746 -0.382683 2.7746
1.5016 -0.382683 3.62519
1.53073 0 3.69552
0 0 4
1.5016 -0.382683 3.62519
2.40268e-16 -0.382683 3.92388
2.7746 -0.382683 2.7746
1.5016 -0.382683 3.62519
2.62132 -0.707107 2.62132
1.41865 -0.707107 3.42492
1.5016 -0.382683 3.62519
2.40268e-16 -0.382683 3.92388
1.41865 -0.707107 3.42492
2.26995e-16 -0.707107 3.70711
3.70711 -0.707107 0
3.42492 -0.707107 1.41865
3.38268 -0.92388 0
3.12519 -0.92388 1.2945
3.42492 -0.707107 1.41865
2.62132 -0.707107 2.62132
3.12519 -0.92388 1.2945
2.39192 -0.92388 2.39192
3.38268 -0.92388 0
3.12519 -0.92388 1.2945
3 -1 0
2.77164 -1 1.14805
3.12519 -0.92388 1.2945
2.39192 -0.92388 2.39192
2.77164 -1 1.14805
2.12132 -1 2.12132
2.62132 -0.707107 2.62132
1.41865 -0.707107 3.42492
2.39192 -0.92388 2.39192
1.2945 -0.92388 3.12519
1.41865 -0.707107 3.42492
2.26995e-16 -0.707107 3.70711
1.2945 -0.92388 3.12519
2.0713e-16 -0.92388 3.38268
2.39192 -0.92388 2.39192
1.2945 -0.92388 3.12519
2.12132 -1 2.12132
1.14805 -1 2.77164
1.2945 -0.92388 3.12519
2.0713e-16 -0.92388 3.38268
1.14805 -1 2.77164
0 -1 3
3 1 0
2.77164 1 1.14805
3.38268 0.92388 0
3.12519 0.92388 1.2945
2.77164 1 1.14805
2.12132 1 2.12132
3.12519 0.92388 1.2945
2.39192 0.92388 2.39192
3.38268 0.92388 0
3.12519 0.92388 1.2945
3.70711 0.707107 0
3.42492 0.707107 1.41865
3.12519 0.92388 1.2945
2.39192 0.92388 2.39192
3.42492 0.707107 1.41865
2.62132 0.707107 2.62132
2.12132 1 2.12132
1.14805 1 2.77164
2.39192 0.92388 2.39192
1.2945 0.92388 3.12519
1.14805 1 2.77164
0 1 3
1.2945 0.92388 3.12519
2.0713e-16 0.92388 3.38268
2.39192 0.92388 2.39192
1.2945 0.92388 3.12519
2.62132 0.707107 2.62132
1.41865 0.707107 3.42492
1.2945 0.92388 3.12519
2.0713e-16 0.92388 3.38268
1.41865 0.707107 3.42492
2.26995e-16 0.707107 3.70711
3.70711 0.707107 0
3.42492 0.707107 1.41865
3.92388 0.382683 0
3.62519 0.382683 1.5016
3.42492 0.707107 1.41865
2.62132 0.707107 2.62132
3.62519 0.382683 1.5016
2.7746 0.382683 2.7746
3.92388 0.382683 0
3.62519 0.382683 1.5016
4 0 0
3.69552 0 1.53073
3.62519 0.382683 1.5016
2.7746 0.382683 2.7746
3.69552 0 1.53073
2.82843 0 2.82843
2.62132 0.707107 2.62132
1.41865 0.707107 3.42492
2.7746 0.382683 2.7746
1.5016 0.382683 3.62519
1.41865 0.707107 3.42492
2.26995e-16 0.707107 3.70711
1.5016 0.382683 3.62519
2.40268e-16 0.382683 3.92388
2.7746 0.382683 2.7746
1.5016 0.382683 3.62519
2.82843 0 2.82843
1.53073 0 3.69552
1.5016 0.382683 3.62519
2.40268e-16 0.382683 3.92388
1.53073 0 3.69552
0 0 4
0 0 2
-0.765367 1.22465e-16 1.84776
1.27126e-16 0.382683 2.07612
-0.794497 0.382683 1.91809
-0.765367 1.22465e-16 1.84776
-1.41421 1.22465e-16 1.41421
-0.794497 0.382683 1.91809
-1.46804 0.382683 1.46804
1.27126e-16 0.382683 2.07612
-0.794497 0.382683 1.91809
1.40399e-16 0.707107 2.29289
-0.877452 0.707107 2.11836
-0.794497 0.382683 1.91809
-1.46804 0.382683 1.46804
-0.877452 0.707107 2.11836
-1.62132 0.707107 1.62132
-1.41421 1.22465e-16 1.41421
-1.84776 1.22465e-16 0.765367
-1.46804 0.382683 1.46804
-1.91809 0.382683 0.794497
-1.84776 1.22465e-16 0.765367
-2 0 0
-1.91809 0.382683 0.794497
-2.07612 0.382683 2.54251e-16
-1.46804 0.382683 1.46804
-1.91809 0.382683 0.794497
-1.62132 0.707107 1.62132
-2.11836 0.707107 0.877452
-1.91809 0.382683 0.794497
-2.07612 0.382683 2.54251e-16
-2.11836 0.707107 0.877452
-2.29289 0.707107 2.80798e-16
1.40399e-16 0.707107 2.29289
-0.877452 0.707107 2.11836
1.60264e-16 0.92388 2.61732
-1.0016 0.92388 2.41809
-0.877452 0.707107 2.11836
-1.62132 0.707107 1.62132
-1.0016 0.92388 2.41809
-1.85072 0.92388 1.85072
1.60264e-16 0.92388 2.61732
-1.0016 0.92388 2.41809
0 1 3
-1.14805 1 2.77164
-1.0016 0.92388 2.41809
-1.85072 0.92388 1.85072
-1.14805 1 2.77164
-2.12132 1 2.12132
-1.62132 0.707107 1.62132
-2.11836 0.707107 0.877452
-1.85072 0.92388 1.85072
-2.41809 0.92388 1.0016
-2.11836 0.707107 0.877452
-2.29289 0.707107 2.80798e-16
-2.41809 0.92388 1.0016
-2.61732 0.92388 3.20529e-16
-1.85072 0.92388 1.85072
-2.41809 0.92388 1.0016
-2.12132 1 2.12132
-2.77164 1 1.14805
-2.41809 0.92388 1.0016
-2.61732 0.92388 3.20529e-16
-2.77164 1 1.14805
-3 1 0
0 -1 3
-1.14805 -1 2.77164
1.60264e-16 -0.92388 2.61732
-1.0016 -0.92388 2.41809
-1.14805 -1 2.77164
-2.12132 -1 2.12132
-1.0016 -0.92388 2.41809
-1.85072 -0.92388 1.85072
1.60264e-16 -0.92388 2.61732
-1.0016 -0.92388 2.41809
1.40399e-16 -0.707107 2.29289
-0.877452 -0.707107 2.11836
-1.0016 -0.92388 2.41809
-1.85072 -0.92388 1.85072
-0.877452 -0.707107 2.11836
-1.62132 -0.707107 1.62132
-2.12132 -1 2.12132
-2.77164 -1 1.14805
-1.85072 -0.92388 1.85072
-2.41809 -0.92388 1.0016
-2.77164 -1 1.14805
-3 -1 0
-2.41809 -0.92388 1.0016
-2.61732 -0.92388 3.20529e-16
-1.85072 -0.92388 1.85072
-2.41809 -0.92388 1.0016
-1.62132 -0.707107 1.62132
-2.11836 -0.707107 0.877452
-2.41809 -0.92388 1.0016
-2.61732 -0.92388 3.20529e-16
-2.11836 -0.707107 0.877452
-2.29289 -0.707107 2.80798e-16
1.40399e-16 -0.707107 2.29289
-0.877452 -0.707107 2.11836
1.27126e-16 -0.382683 2.07612
-0.794497 -0.382683 1.91809
-0.877452 -0.707107 2.11836
-1.62132 -0.707107 1.62132
-0.794497 -0.382683 1.91809
-1.46804 -0.382683 1.46804
1.27126e-16 -0.382683 2.07612
-0.794497 -0.382683 1.91809
0 0 2
-0.765367 1.22465e-16 1.84776
-0.794497 -0.382683 1.91809
-1.46804 -0.382683 1.46804
-0.765367 1.22465e-16 1.84776
-1.41421 1.22465e-16 1.41421
-1.62132 -0.707107 1.62132
-2.11836 -0.707107 0.877452
-1.46804 -0.382683 1.46804
-1.91809 -0.382683 0.794497
-2.11836 -0.707107 0.877452
-2.29289 -0.707107 2.80798e-16
-1.91809 -0.382683 0.794497
-2.07612 -0.382683 2.54251e-16
-1.46804 -0.382683 1.46804
-1.91809 -0.382683 0.794497
-1.41421 1.22465e-16 1.41421
-1.84776 1.22465e-16 0.765367
-1.91809 -0.382683 0.794497
-2.07612 -0.382683 2.54251e-16
-1.84776 1.22465e-16 0.765367
-2 0 0
0 0 4
-1.53073 0 3.69552
2.40268e-16 -0.382683 3.92388
-1.5016 -0.382683 3.62519
-1.53073 0 3.69552
-2.82843 0 2.82843
-1.5016 -0.382683 3.62519
-2.7746 -0.382683 2.7746
2.40268e-16 -0.382683 3.92388
-1.5016 -0.382683 3.62519
2.26995e-16 -0.707107 3.70711
-1.41865 -0.707107 3.42492
-1.5016 -0.382683 3.62519
-2.7746 -0.382683 2.7746
-1.41865 -0.707107 3.42492
-2.62132 -0.707107 2.62132
-2.82843 0 2.82843
-3.69552 0 1.53073
-2.7746 -0.382683 2.7746
-3.62519 -0.382683 1.5016
-3.69552 0 1.53073
-4 0 0
-3.62519 -0.382683 1.5016
-3.92388 -0.382683 4.80537e-16
-2.7746 -0.382683 2.7746
-3.62519 -0.382683 1.5016
-2.62132 -0.707107 2.62132
-3.42492 -0.707107 1.41865
[...]
POINT_DATA 1024
SCALARS U double 1
LOOKUP_TABLE default
0.097551 0.0978258 0.125407 0.125786 0.0978258 0.094841 0.125786 0.122843 0.125407 0.125786 0.151795 0.152283 0.125786 0.122843 0.152283 0.150024 0.094841 0.0816345 0.122843 0.107431 0.0816345 0.0257478 0.107431 0.0424588 0.122843 0.107431 0.150024 0.134586 0.107431 0.0424588 0.134586 0.0605523 0.151795 0.152283 0.168178 0.16869 0.152283 0.150024 0.16869 0.167409 0.168178 0.16869 0.172437 0.172862 0.16869 0.167409 0.172862 0.172483 0.150024 0.134586 0.167409 0.153398 0.134586 0.0605523 0.153398 0.0726115 0.167409 0.153398 0.172483 0.16051 0.153398 0.0726115 0.16051 0.075477 0.0158774 0.0159161 0.0185795 0.0186471 0.0159161 0.015869 0.0186471 0.0181496 0.0185795 0.0186471 0.0316785 0.031767 0.0186471 0.0181496 0.031767 0.0306255 0.015869 0.0125332 0.0181496 0.0136908 0.0125332 0.00343594 0.0136908 0.00510374 0.0181496 0.0136908 0.0306255 0.0233192 0.0136908 0.00510374 0.0233192 0.00919181 0.0316785 0.031767 0.07201 0.0722499 0.031767 0.0306255 0.0722499 0.0698209 0.07201 0.0722499 0.097551 0.0978258 0.0722499 0.0698209 0.0978258 0.094841 0.0306255 0.0233192 0.0698209 0.0605963 0.0233192 0.00919181 0.0605963 0.0144213 0.0698209 0.0605963 0.094841 0.0816345 0.0605963 0.0144213 0.0816345 0.0257478 0.0979549 0.0979906 0.0756246 0.0757022 0.0979906 0.0985772 0.0757022 0.0760339 0.0756246 0.0757022 0.0364538 0.0363558 0.0757022 0.0760339 0.0363558 0.0371253 0.0985772 0.0938725 0.0760339 0.0727334 0.0938725 0.0154637 0.0727334 0.00679481 0.0760339 0.0727334 0.0371253 0.032162 0.0727334 0.00679481 0.032162 0.00550073 0.0364538 0.0363558 0.0216931 0.021673 0.0363558 0.0371253 0.021673 0.0220458 0.0216931 0.021673 0.0158774 0.0159161 0.021673 0.0220458 0.0159161 0.015869 0.0371253 0.032162 0.0220458 0.0182342 0.032162 0.00550073 0.0182342 0.0038028 0.0220458 0.0182342 0.015869 0.0125332 0.0182342 0.0038028 0.0125332 0.00343594 0.172437 0.172862 0.165525 0.165803 0.172862 0.172483 0.165803 0.166062 0.165525 0.165803 0.147659 0.147796 0.165803 0.166062 0.147796 0.148407 0.172483 0.16051 0.166062 0.156192 0.16051 0.075477 0.156192 0.0689205 0.166062 0.156192 0.148407 0.140445 0.156192 0.0689205 0.140445 0.0528686 0.147659 0.147796 0.122537 0.122585 0.147796 0.148407 0.122585 0.123297 0.122537 0.122585 0.0979549 0.0979906 0.122585 0.123297 0.0979906 0.0985772 0.148407 0.140445 0.123297 0.117005 0.140445 0.0528686 0.117005 0.0320852 0.123297 0.117005 0.0985772 0.0938725 0.117005 0.0320852 0.0938725 0.0154637 0.0257478 0.00617474 0.0424588 0.0094755 0.00617474 -3.40641e-05 0.0094755 -0.000272422 0.0424588 0.0094755 0.0605523 0.0116394 0.0094755 -0.000272422 0.0116394 -0.00078275 -3.40641e-05 -6.70751e-05 -0.000272422 -7.02352e-05 -6.70751e-05 6.66599e-06 -7.02352e-05 1.53779e-05 -0.000272422 -7.02352e-05 -0.00078275 -2.91097e-06 -7.02352e-05 1.53779e-05 -2.91097e-06 8.56831e-06 0.0605523 0.0116394 0.0726115 0.0111988 0.0116394 -0.00078275 0.0111988 -0.00121206 0.0726115 0.0111988 0.075477 0.00869805 0.0111988 -0.00121206 0.00869805 -0.0013028 -0.00078275 -2.91097e-06 -0.00121206 0.000106078 -2.91097e-06 8.56831e-06 0.000106078 -2.21702e-05 -0.00121206 0.000106078 -0.0013028 0.000187781 0.000106078 -2.21702e-05 0.000187781 -5.71641e-05 0.00343594 3.71836e-05 0.00510374 0.000526409 3.71836e-05 -2.97003e-05 0.000526409 -5.65697e-05 0.00510374 0.000526409 0.00919181 0.0014448 0.000526409 -5.65697e-05 0.0014448 -4.86579e-05 -2.97003e-05 4.35155e-06 -5.65697e-05 -2.52892e-06 4.35155e-06 -1.50689e-06 -2.52892e-06 1.70175e-06 -5.65697e-05 -2.52892e-06 -4.86579e-05 -1.8986e-05 -2.52892e-06 1.70175e-06 -1.8986e-05 4.50999e-06 0.00919181 0.0014448 0.0144213 0.00350993 0.0014448 -4.86579e-05 0.00350993 -7.09906e-05 0.0144213 0.00350993 0.0257478 0.00617474 0.00350993 -7.09906e-05 0.00617474 -3.40641e-05 -4.86579e-05 -1.8986e-05 -7.09906e-05 -2.90259e-05 -1.8986e-05 4.50999e-06 -2.90259e-05 -1.04462e-06 -7.09906e-05 -2.90259e-05 -3.40641e-05 -6.70751e-05 -2.90259e-05 -1.04462e-06 -6.70751e-05 6.66599e-06 0.0154637 0.0005117 0.00679481 0.000148998 0.0005117 -0.000208848 0.000148998 -0.000117829 0.00679481 0.000148998 0.00550073 -0.000495771 0.000148998 -0.000117829 -0.000495771 5.04152e-05 -0.000208848 6.5911e-05 -0.000117829 4.66967e-05 6.5911e-05 -3.23078e-05 4.66967e-05 -2.5729e-05 -0.000117829 4.66967e-05 5.04152e-05 6.4911e-07 4.66967e-05 -2.5729e-05 6.4911e-07 -3.74689e-06 0.00550073 -0.000495771 0.0038028 -0.000299052 -0.000495771 5.04152e-05 -0.000299052 1.53249e-05 0.0038028 -0.000299052 0.00343594 3.71836e-05 -0.000299052 1.53249e-05 3.71836e-05 -2.97003e-05 5.04152e-05 6.4911e-07 1.53249e-05 3.77195e-06 6.4911e-07 -3.74689e-06 3.77195e-06 -3.44149e-06 1.53249e-05 3.77195e-06 -2.97003e-05 4.35155e-06 3.77195e-06 -3.44149e-06 4.35155e-06 -1.50689e-06 0.075477 0.00869805 0.0689205 0.00559312 0.00869805 -0.0013028 0.00559312 -0.00108532 0.0689205 0.00559312 0.0528686 0.00299451 0.00559312 -0.00108532 0.00299451 -0.000729797 -0.0013028 0.000187781 -0.00108532 0.000205373 0.000187781 -5.71641e-05 0.000205373 -7.45362e-05 -0.00108532 0.000205373 -0.000729797 0.000166571 0.000205373 -7.45362e-05 0.000166571 -6.76283e-05 0.0528686 0.00299451 0.0320852 0.00134797 0.00299451 -0.000729797 0.00134797 -0.000408995 0.0320852 0.00134797 0.0154637 0.0005117 0.00134797 -0.000408995 0.0005117 -0.000208848 -0.000729797 0.000166571 -0.000408995 0.000108332 0.000166571 -6.76283e-05 0.000108332 -4.78769e-05 -0.000408995 0.000108332 -0.000208848 6.5911e-05 0.000108332 -4.78769e-05 6.5911e-05 -3.23078e-05 6.66599e-06 -6.70764e-05 1.53779e-05 -7.02371e-05 -6.70764e-05 -3.40731e-05 -7.02371e-05 -0.000272434 1.53779e-05 -7.02371e-05 8.56831e-06 -2.91597e-06 -7.02371e-05 -0.000272434 -2.91597e-06 -0.000782764 -3.40731e-05 0.00617474 -0.000272434 0.00947549 0.00617474 0.0257478 0.00947549 0.0424588 -0.000272434 0.00947549 -0.000782764 0.0116394 0.00947549 0.0424588 0.0116394 0.0605523 8.56831e-06 -2.91597e-06 -2.21702e-05 0.000106078 -2.91597e-06 -0.000782764 0.000106078 -0.00121206 -2.21702e-05 0.000106078 -5.71641e-05 0.000187787 0.000106078 -0.00121206 0.000187787 -0.00130279 -0.000782764 0.0116394 -0.00121206 0.0111988 0.0116394 0.0605523 0.0111988 0.0726115 -0.00121206 0.0111988 -0.00130279 0.00869805 0.0111988 0.0726115 0.00869805 0.075477 -1.50689e-06 4.35315e-06 1.70175e-06 -2.5259e-06 4.35315e-06 -2.96979e-05 -2.5259e-06 -5.65707e-05 1.70175e-06 -2.5259e-06 4.50999e-06 -1.89862e-05 -2.5259e-06 -5.65707e-05 -1.89862e-05 -4.86534e-05 -2.96979e-05 3.71872e-05 -5.65707e-05 0.00052642 3.71872e-05 0.00343595 0.00052642 0.00510374 -5.65707e-05 0.00052642 -4.86534e-05 0.0014448 0.00052642 0.00510374 0.0014448 0.00919181 4.50999e-06 -1.89862e-05 -1.04462e-06 -2.90248e-05 -1.89862e-05 -4.86534e-05 -2.90248e-05 -7.09931e-05 -1.04462e-06 -2.90248e-05 6.66599e-06 -6.70764e-05 -2.90248e-05 -7.09931e-05 -6.70764e-05 -3.40731e-05 -4.86534e-05 0.0014448 -7.09931e-05 0.00350993 0.0014448 0.00919181 0.00350993 0.0144213 -7.09931e-05 0.00350993 -3.40731e-05 0.00617474 0.00350993 0.0144213 0.00617474 0.0257478 -3.23078e-05 6.59116e-05 -2.5729e-05 4.66994e-05 6.59116e-05 -0.000208846 4.66994e-05 -0.00011783 -2.5729e-05 4.66994e-05 -3.74689e-06 6.48569e-07 4.66994e-05 -0.00011783 6.48569e-07 5.04205e-05 -0.000208846 0.000511697 -0.00011783 0.000148991 0.000511697 0.0154637 0.000148991 0.00679482 -0.00011783 0.000148991 5.04205e-05 -0.000495778 0.000148991 0.00679482 -0.000495778 0.00550073 -3.74689e-06 6.48569e-07 -3.44149e-06 3.77257e-06 6.48569e-07 5.04205e-05 3.77257e-06 1.53253e-05 -3.44149e-06 3.77257e-06 -1.50689e-06 4.35315e-06 3.77257e-06 1.53253e-05 4.35315e-06 -2.96979e-05 5.04205e-05 -0.000495778 1.53253e-05 -0.000299051 -0.000495778 0.00550073 -0.000299051 0.0038028 1.53253e-05 -0.000299051 -2.96979e-05 3.71872e-05 -0.000299051 0.0038028 3.71872e-05 0.00343595 -5.71641e-05 0.000187787 -7.45362e-05 0.000205378 0.000187787 -0.00130279 0.000205378 -0.00108531 -7.45362e-05 0.000205378 -6.76283e-05 0.000166572 0.000205378 -0.00108531 0.000166572 -0.000729783 -0.00130279 0.00869805 -0.00108531 0.00559312 0.00869805 0.075477 0.00559312 0.0689205 -0.00108531 0.00559312 -0.000729783 0.0029945 0.00559312 0.0689205 0.0029945 0.0528686 -6.76283e-05 0.000166572 -4.78769e-05 0.000108334 0.000166572 -0.000729783 0.000108334 -0.00040899 -4.78769e-05 0.000108334 -3.23078e-05 6.59116e-05 0.000108334 -0.00040899 6.59116e-05 -0.000208846 -0.000729783 0.0029945 -0.00040899 0.00134797 0.0029945 0.0528686 0.00134797 0.0320852 -0.00040899 0.00134797 -0.000208846 0.000511697 0.00134797 0.0320852 0.000511697 0.0154637 0.0257478 0.0816345 0.0424588 0.107431 0.0816345 0.094841 0.107431 0.122843 0.0424588 0.107431 0.0605523 0.134586 0.107431 0.122843 0.134586 0.150024 0.094841 0.0978258 0.122843 0.125786 0.0978258 0.097551 0.125786 0.125407 0.122843 0.125786 0.150024 0.152283 0.125786 0.125407 0.152283 0.151795 0.0605523 0.134586 0.0726115 0.153398 0.134586 0.150024 0.153398 0.167409 0.0726115 0.153398 0.075477 0.16051 0.153398 0.167409 0.16051 0.172483 0.150024 0.152283 0.167409 0.16869 0.152283 0.151795 0.16869 0.168178 0.167409 0.16869 0.172483 0.172862 0.16869 0.168178 0.172862 0.172437 0.00343595 0.0125332 0.00510374 0.0136908 0.0125332 0.015869 0.0136908 0.0181496 0.00510374 0.0136908 0.00919181 0.0233192 0.0136908 0.0181496 0.0233192 0.0306255 0.015869 0.015916 0.0181496 0.0186471 0.015916 0.0158774 0.0186471 0.0185795 0.0181496 0.0186471 0.0306255 0.031767 0.0186471 0.0185795 0.031767 0.0316785 0.00919181 0.0233192 0.0144213 0.0605962 0.0233192 0.0306255 0.0605962 0.0698209 0.0144213 0.0605962 0.0257478 0.0816345 0.0605962 0.0698209 0.0816345 0.094841 0.0306255 0.031767 0.0698209 0.0722499 0.031767 0.0316785 0.0722499 0.07201 0.0698209 0.0722499 0.094841 0.0978258 0.0722499 0.07201 0.0978258 0.097551 0.0154637 0.0938725 0.00679482 0.0727334 0.0938725 0.0985772 0.0727334 0.0760339 0.00679482 0.0727334 0.00550073 0.032162 0.0727334 0.0760339 0.032162 0.0371253 0.0985772 0.0979906 0.0760339 0.0757022 0.0979906 0.0979549 0.0757022 0.0756246 0.0760339 0.0757022 0.0371253 0.0363558 0.0757022 0.0756246 0.0363558 0.0364538 0.00550073 0.032162 0.0038028 0.0182342 0.032162 0.0371253 0.0182342 0.0220458 0.0038028 0.0182342 0.00343595 0.0125332 0.0182342 0.0220458 0.0125332 0.015869 0.0371253 0.0363558 0.0220458 0.021673 0.0363558 0.0364538 0.021673 0.0216931 0.0220458 0.021673 0.015869 0.015916 0.021673 0.0216931 0.015916 0.0158774 0.075477 0.16051 0.0689205 0.156192 0.16051 0.172483 0.156192 0.166062 0.0689205 0.156192 0.0528686 0.140445 0.156192 0.166062 0.140445 0.148407 0.172483 0.172862 0.166062 0.165803 0.172862 0.172437 0.165803 0.165525 0.166062 0.165803 0.148407 0.147796 0.165803 0.165525 0.147796 0.147659 0.0528686 0.140445 0.0320852 0.117005 0.140445 0.148407 0.117005 0.123297 0.0320852 0.117005 0.0154637 0.0938725 0.117005 0.123297 0.0938725 0.0985772 0.148407 0.147796 0.123297 0.122585 0.147796 0.147659 0.122585 0.122537 0.123297 0.122585 0.0985772 0.0979906 0.122585 0.122537 0.0979906 0.0979549 
