# vtk DataFile Version 3.0
#This file was generated by the deal.II library on 2023/3/8 at 18:39:21
ASCII
DATASET UNSTRUCTURED_GRID

FIELD FieldData 2
CYCLE 1 1 int
13
TIME 1 1 double
0.026
POINTS 1024 double
2 0 0
1.84776 1.22465e-16 0.765367
2.07612 0.382683 0
1.91809 0.382683 0.794497
1.84776 1.22465e-16 0.765367
1.41421 1.22465e-16 1.41421
1.91809 0.382683 0.794497
1.46804 0.382683 1.46804
2.07612 0.382683 0
1.91809 0.382683 0.794497
2.29289 0.707107 0
2.11836 0.707107 0.877452
1.91809 0.382683 0.794497
1.46804 0.382683 1.46804
2.11836 0.707107 0.877452
1.62132 0.707107 1.62132
1.41421 1.22465e-16 1.41421
0.765367 1.22465e-16 1.84776
1.46804 0.382683 1.46804
0.794497 0.382683 1.91809
0.765367 1.22465e-16 1.84776
0 0 2
0.794497 0.382683 1.91809
1.27126e-16 0.382683 2.07612
1.46804 0.382683 1.46804
0.794497 0.382683 1.91809
1.62132 0.707107 1.62132
0.877452 0.707107 2.11836
0.794497 0.382683 1.91809
1.27126e-16 0.382683 2.07612
0.877452 0.707107 2.11836
1.40399e-16 0.707107 2.29289
2.29289 0.707107 0
2.11836 0.707107 0.877452
2.61732 0.92388 0
2.41809 0.92388 1.0016
2.11836 0.707107 0.877452
1.62132 0.707107 1.62132
2.41809 0.92388 1.0016
1.85072 0.92388 1.85072
2.61732 0.92388 0
2.41809 0.92388 1.0016
3 1 0
2.77164 1 1.14805
2.41809 0.92388 1.0016
1.85072 0.92388 1.85072
2.77164 1 1.14805
2.12132 1 2.12132
1.62132 0.707107 1.62132
0.877452 0.707107 2.11836
1.85072 0.92388 1.85072
1.0016 0.92388 2.41809
0.877452 0.707107 2.11836
1.40399e-16 0.707107 2.29289
1.0016 0.92388 2.41809
1.60264e-16 0.92388 2.61732
1.85072 0.92388 1.85072
1.0016 0.92388 2.41809
2.12132 1 2.12132
1.14805 1 2.77164
1.0016 0.92388 2.41809
1.60264e-16 0.92388 2.61732
1.14805 1 2.77164
0 1 3
3 -1 0
2.77164 -1 1.14805
2.61732 -0.92388 0
2.41809 -0.92388 1.0016
2.77164 -1 1.14805
2.12132 -1 2.12132
2.41809 -0.92388 1.0016
1.85072 -0.92388 1.85072
2.61732 -0.92388 0
2.41809 -0.92388 1.0016
2.29289 -0.707107 0
2.11836 -0.707107 0.877452
2.41809 -0.92388 1.0016
1.85072 -0.92388 1.85072
2.11836 -0.707107 0.877452
1.62132 -0.707107 1.62132
2.12132 -1 2.12132
1.14805 -1 2.77164
1.85072 -0.92388 1.85072
1.0016 -0.92388 2.41809
1.14805 -1 2.77164
0 -1 3
1.0016 -0.92388 2.41809
1.60264e-16 -0.92388 2.61732
1.85072 -0.92388 1.85072
1.0016 -0.92388 2.41809
1.62132 -0.707107 1.62132
0.877452 -0.707107 2.11836
1.0016 -0.92388 2.41809
1.60264e-16 -0.92388 2.61732
0.877452 -0.707107 2.11836
1.40399e-16 -0.707107 2.29289
2.29289 -0.707107 0
2.11836 -0.707107 0.877452
2.07612 -0.382683 0
1.91809 -0.382683 0.794497
2.11836 -0.707107 0.877452
1.62132 -0.707107 1.62132
1.91809 -0.382683 0.794497
1.46804 -0.382683 1.46804
2.07612 -0.382683 0
1.91809 -0.382683 0.794497
2 0 0
1.84776 1.22465e-16 0.765367
1.91809 -0.382683 0.794497
1.46804 -0.382683 1.46804
1.84776 1.22465e-16 0.765367
1.41421 1.22465e-16 1.41421
1.62132 -0.707107 1.62132
0.877452 -0.707107 2.11836
1.46804 -0.382683 1.46804
0.794497 -0.382683 1.91809
0.877452 -0.707107 2.11836
1.40399e-16 -0.707107 2.29289
0.794497 -0.382683 1.91809
1.27126e-16 -0.382683 2.07612
1.46804 -0.382683 1.46804
0.794497 -0.382683 1.91809
1.41421 1.22465e-16 1.41421
0.765367 1.22465e-16 1.84776
0.794497 -0.382683 1.91809
1.27126e-16 -0.382683 2.07612
0.765367 1.22465e-16 1.84776
0 0 2
4 0 0
3.69552 0 1.53073
3.92388 -0.382683 0
3.62519 -0.382683 1.5016
3.69552 0 1.53073
2.82843 0 2.82843
3.62519 -0.382683 1.5016
2.7746 -0.382683 2.7746
3.92388 -0.382683 0
3.62519 -0.382683 1.5016
3.70711 -0.707107 0
3.42492 -0.707107 1.41865
3.62519 -0.382683 1.5016
2.7746 -0.382683 2.7746
3.42492 -0.707107 1.41865
2.62132 -0.707107 2.62132
2.82843 0 2.82843
1.53073 0 3.69552
2.7746 -0.382683 2.7746
1.5016 -0.382683 3.62519
1.53073 0 3.69552
0 0 4
1.5016 -0.382683 3.62519
2.40268e-16 -0.382683 3.92388
2.7746 -0.382683 2.7746
1.5016 -0.382683 3.62519
2.62132 -0.707107 2.62132
1.41865 -0.707107 3.42492
1.5016 -0.382683 3.62519
2.40268e-16 -0.382683 3.92388
1.41865 -0.707107 3.42492
2.26995e-16 -0.707107 3.70711
3.70711 -0.707107 0
3.42492 -0.707107 1.41865
3.38268 -0.92388 0
3.12519 -0.92388 1.2945
3.42492 -0.707107 1.41865
2.62132 -0.707107 2.62132
3.12519 -0.92388 1.2945
2.39192 -0.92388 2.39192
3.38268 -0.92388 0
3.12519 -0.92388 1.2945
3 -1 0
2.77164 -1 1.14805
3.12519 -0.92388 1.2945
2.39192 -0.92388 2.39192
2.77164 -1 1.14805
2.12132 -1 2.12132
2.62132 -0.707107 2.62132
1.41865 -0.707107 3.42492
2.39192 -0.92388 2.39192
1.2945 -0.92388 3.12519
1.41865 -0.707107 3.42492
2.26995e-16 -0.707107 3.70711
1.2945 -0.92388 3.12519
2.0713e-16 -0.92388 3.38268
2.39192 -0.92388 2.39192
1.2945 -0.92388 3.12519
2.12132 -1 2.12132
1.14805 -1 2.77164
1.2945 -0.92388 3.12519
2.0713e-16 -0.92388 3.38268
1.14805 -1 2.77164
0 -1 3
3 1 0
2.77164 1 1.14805
3.38268 0.92388 0
3.12519 0.92388 1.2945
2.77164 1 1.14805
2.12132 1 2.12132
3.12519 0.92388 1.2945
2.39192 0.92388 2.39192
3.38268 0.92388 0
3.12519 0.92388 1.2945
3.70711 0.707107 0
3.42492 0.707107 1.41865
3.12519 0.92388 1.2945
2.39192 0.92388 2.39192
3.42492 0.707107 1.41865
2.62132 0.707107 2.62132
2.12132 1 2.12132
1.14805 1 2.77164
2.39192 0.92388 2.39192
1.2945 0.92388 3.12519
1.14805 1 2.77164
0 1 3
1.2945 0.92388 3.12519
2.0713e-16 0.92388 3.38268
2.39192 0.92388 2.39192
1.2945 0.92388 3.12519
2.62132 0.707107 2.62132
1.41865 0.707107 3.42492
1.2945 0.92388 3.12519
2.0713e-16 0.92388 3.38268
1.41865 0.707107 3.42492
2.26995e-16 0.707107 3.70711
3.70711 0.707107 0
3.42492 0.707107 1.41865
3.92388 0.382683 0
3.62519 0.382683 1.5016
3.42492 0.707107 1.41865
2.62132 0.707107 2.62132
3.62519 0.382683 1.5016
2.7746 0.382683 2.7746
3.92388 0.382683 0
3.62519 0.382683 1.5016
4 0 0
3.69552 0 1.53073
3.62519 0.382683 1.5016
2.7746 0.382683 2.7746
3.69552 0 1.53073
2.82843 0 2.82843
2.62132 0.707107 2.62132
1.41865 0.707107 3.42492
2.7746 0.382683 2.7746
1.5016 0.382683 3.62519
1.41865 0.707107 3.42492
2.26995e-16 0.707107 3.70711
1.5016 0.382683 3.62519
2.40268e-16 0.382683 3.92388
2.7746 0.382683 2.7746
1.5016 0.382683 3.62519
2.82843 0 2.82843
1.53073 0 3.69552
1.5016 0.382683 3.62519
2.40268e-16 0.382683 3.92388
1.53073 0 3.69552
0 0 4
0 0 2
-0.765367 1.22465e-16 1.84776
1.27126e-16 0.382683 2.07612
-0.794497 0.382683 1.91809
-0.765367 1.22465e-16 1.84776
-1.41421 1.22465e-16 1.41421
-0.794497 0.382683 1.91809
-1.46804 0.382683 1.46804
1.27126e-16 0.382683 2.07612
-0.794497 0.382683 1.91809
1.40399e-16 0.707107 2.29289
-0.877452 0.707107 2.11836
-0.794497 0.382683 1.91809
-1.46804 0.382683 1.46804
-0.877452 0.707107 2.11836
-1.62132 0.707107 1.62132
-1.41421 1.22465e-16 1.41421
-1.84776 1.22465e-16 0.765367
-1.46804 0.382683 1.46804
-1.91809 0.382683 0.794497
-1.84776 1.22465e-16 0.765367
-2 0 0
-1.91809 0.382683 0.794497
-2.07612 0.382683 2.54251e-16
-1.46804 0.382683 1.46804
-1.91809 0.382683 0.794497
-1.62132 0.707107 1.62132
-2.11836 0.707107 0.877452
-1.91809 0.382683 0.794497
-2.07612 0.382683 2.54251e-16
-2.11836 0.707107 0.877452
-2.29289 0.707107 2.80798e-16
1.40399e-16 0.707107 2.29289
-0.877452 0.707107 2.11836
1.60264e-16 0.92388 2.61732
-1.0016 0.92388 2.41809
-0.877452 0.707107 2.11836
-1.62132 0.707107 1.62132
-1.0016 0.92388 2.41809
-1.85072 0.92388 1.85072
1.60264e-16 0.92388 2.61732
-1.0016 0.92388 2.41809
0 1 3
-1.14805 1 2.77164
-1.0016 0.92388 2.41809
-1.85072 0.92388 1.85072
-1.14805 1 2.77164
-2.12132 1 2.12132
-1.62132 0.707107 1.62132
-2.11836 0.707107 0.877452
-1.85072 0.92388 1.85072
-2.41809 0.92388 1.0016
-2.11836 0.707107 0.877452
-2.29289 0.707107 2.80798e-16
-2.41809 0.92388 1.0016
-2.61732 0.92388 3.20529e-16
-1.85072 0.92388 1.85072
-2.41809 0.92388 1.0016
-2.12132 1 2.12132
-2.77164 1 1.14805
-2.41809 0.92388 1.0016
-2.61732 0.92388 3.20529e-16
-2.77164 1 1.14805
-3 1 0
0 -1 3
-1.14805 -1 2.77164
1.60264e-16 -0.92388 2.61732
-1.0016 -0.92388 2.41809
-1.14805 -1 2.77164
-2.12132 -1 2.12132
-1.0016 -0.92388 2.41809
-1.85072 -0.92388 1.85072
1.60264e-16 -0.92388 2.61732
-1.0016 -0.92388 2.41809
1.40399e-16 -0.707107 2.29289
-0.877452 -0.707107 2.11836
-1.0016 -0.92388 2.41809
-1.85072 -0.92388 1.85072
-0.877452 -0.707107 2.11836
-1.62132 -0.707107 1.62132
-2.12132 -1 2.12132
-2.77164 -1 1.14805
-1.85072 -0.92388 1.85072
-2.41809 -0.92388 1.0016
-2.77164 -1 1.14805
-3 -1 0
-2.41809 -0.92388 1.0016
-2.61732 -0.92388 3.20529e-16
-1.85072 -0.92388 1.85072
-2.41809 -0.92388 1.0016
-1.62132 -0.707107 1.62132
-2.11836 -0.707107 0.877452
-2.41809 -0.92388 1.0016
-2.61732 -0.92388 3.20529e-16
-2.11836 -0.707107 0.877452
-2.29289 -0.707107 2.80798e-16
1.40399e-16 -0.707107 2.29289
-0.877452 -0.707107 2.11836
1.27126e-16 -0.382683 2.07612
-0.794497 -0.382683 1.91809
-0.877452 -0.707107 2.11836
-1.62132 -0.707107 1.62132
-0.794497 -0.382683 1.91809
-1.46804 -0.382683 1.46804
1.27126e-16 -0.382683 2.07612
-0.794497 -0.382683 1.91809
0 0 2
-0.765367 1.22465e-16 1.84776
-0.794497 -0.382683 1.91809
-1.46804 -0.382683 1.46804
-0.765367 1.22465e-16 1.84776
-1.41421 1.22465e-16 1.41421
-1.62132 -0.707107 1.62132
-2.11836 -0.707107 0.877452
-1.46804 -0.382683 1.46804
-1.91809 -0.382683 0.794497
-2.11836 -0.707107 0.877452
-2.29289 -0.707107 2.80798e-16
-1.91809 -0.382683 0.794497
-2.07612 -0.382683 2.54251e-16
-1.46804 -0.382683 1.46804
-1.91809 -0.382683 0.794497
-1.41421 1.22465e-16 1.41421
-1.84776 1.22465e-16 0.765367
-1.91809 -0.382683 0.794497
-2.07612 -0.382683 2.54251e-16
-1.84776 1.22465e-16 0.765367
-2 0 0
0 0 4
-1.53073 0 3.69552
2.40268e-16 -0.382683 3.92388
-1.5016 -0.382683 3.62519
-1.53073 0 3.69552
-2.82843 0 2.82843
-1.5016 -0.382683 3.62519
-2.7746 -0.382683 2.7746
2.40268e-16 -0.382683 3.92388
-1.5016 -0.382683 3.62519
2.26995e-16 -0.707107 3.70711
-1.41865 -0.707107 3.42492
-1.5016 -0.382683 3.62519
-2.7746 -0.382683 2.7746
-1.41865 -0.707107 3.42492
-2.62132 -0.707107 2.62132
-2.82843 0 2.82843
-3.69552 0 1.53073
-2.7746 -0.382683 2.7746
-3.62519 -0.382683 1.5016
-3.69552 0 1.53073
-4 0 0
-3.62519 -0.382683 1.5016
-3.92388 -0.382683 4.80537e-16
-2.7746 -0.382683 2.7746
-3.62519 -0.382683 1.5016
-2.62132 -0.707107 2.62132
-3.42492 -0.707107 1.41865
[...]
POINT_DATA 1024
SCALARS U double 1
LOOKUP_TABLE default
0.0263136 0.0264044 0.0259109 0.0260178 0.0264044 0.0259746 0.0260178 0.0255457 0.0259109 0.0260178 0.0259673 0.026113 0.0260178 0.0255457 0.026113 0.0255337 0.0259746 0.0281832 0.0255457 0.0278753 0.0281832 -0.0018472 0.0278753 -0.00193639 0.0255457 0.0278753 0.0255337 0.0282001 0.0278753 -0.00193639 0.0282001 -0.00219145 0.0259673 0.026113 0.0259414 0.026135 0.026113 0.0255337 0.026135 0.0254302 0.0259414 0.026135 0.0259263 0.0261633 0.026135 0.0254302 0.0261633 0.0253487 0.0255337 0.0282001 0.0254302 0.0284715 0.0282001 -0.00219145 0.0284715 -0.00247181 0.0254302 0.0284715 0.0253487 0.0287071 0.0284715 -0.00247181 0.0287071 -0.00270701 0.000117698 0.000118362 -0.000287181 -0.000287229 0.000118362 0.000115677 -0.000287229 -0.000284754 -0.000287181 -0.000287229 0.00122657 0.00122437 -0.000287229 -0.000284754 0.00122437 0.00122016 0.000115677 0.000128057 -0.000284754 -0.000302917 0.000128057 -1.01734e-05 -0.000302917 1.58415e-05 -0.000284754 -0.000302917 0.00122016 0.00127863 -0.000302917 1.58415e-05 0.00127863 -5.33507e-05 0.00122657 0.00122437 0.0244761 0.0245895 0.00122437 0.00122016 0.0245895 0.0241113 0.0244761 0.0245895 0.0263136 0.0264044 0.0245895 0.0241113 0.0264044 0.0259746 0.00122016 0.00127863 0.0241113 0.0264076 0.00127863 -5.33507e-05 0.0264076 -0.00190058 0.0241113 0.0264076 0.0259746 0.0281832 0.0264076 -0.00190058 0.0281832 -0.0018472 0.0262061 0.0265169 0.0246119 0.0249063 0.0265169 0.0255199 0.0249063 0.0239643 0.0246119 0.0249063 0.00145638 0.00146634 0.0249063 0.0239643 0.00146634 0.00142827 0.0255199 0.0293992 0.0239643 0.0276224 0.0293992 -0.00309242 0.0276224 -0.00291504 0.0239643 0.0276224 0.00142827 0.00159671 0.0276224 -0.00291504 0.00159671 -0.000137443 0.00145638 0.00146634 -0.000352558 -0.000355348 0.00146634 0.00142827 -0.000355348 -0.000345223 -0.000352558 -0.000355348 0.000117698 0.000118362 -0.000355348 -0.000345223 0.000118362 0.000115677 0.00142827 0.00159671 -0.000345223 -0.00038849 0.00159671 -0.000137443 -0.00038849 3.50938e-05 -0.000345223 -0.00038849 0.000115677 0.000128057 -0.00038849 3.50938e-05 0.000128057 -1.01734e-05 0.0259263 0.0261633 0.0259137 0.0261838 0.0261633 0.0253487 0.0261838 0.0252879 0.0259137 0.0261838 0.0259162 0.0262083 0.0261838 0.0252879 0.0262083 0.025259 0.0253487 0.0287071 0.0252879 0.0288749 0.0287071 -0.00270701 0.0288749 -0.00287535 0.0252879 0.0288749 0.025259 0.0289945 0.0288749 -0.00287535 0.0289945 -0.00298437 0.0259162 0.0262083 0.0258419 0.0261456 0.0262083 0.025259 0.0261456 0.0251693 0.0258419 0.0261456 0.0262061 0.0265169 0.0261456 0.0251693 0.0265169 0.0255199 0.025259 0.0289945 0.0251693 0.0289756 0.0289945 -0.00298437 0.0289756 -0.00303548 0.0251693 0.0289756 0.0255199 0.0293992 0.0289756 -0.00303548 0.0293992 -0.00309242 -0.0018472 0.000361287 -0.00193639 0.00039288 0.000361287 -6.67444e-05 0.00039288 -7.65547e-05 -0.00193639 0.00039288 -0.00219145 0.000474169 0.00039288 -7.65547e-05 0.000474169 -0.000100525 -6.67444e-05 1.13122e-05 -7.65547e-05 1.43052e-05 1.13122e-05 -3.07704e-06 1.43052e-05 -4.59744e-06 -7.65547e-05 1.43052e-05 -0.000100525 2.14057e-05 1.43052e-05 -4.59744e-06 2.14057e-05 -8.1505e-06 -0.00219145 0.000474169 -0.00247181 0.000567916 0.000474169 -0.000100525 0.000567916 -0.000129438 -0.00247181 0.000567916 -0.00270701 0.000649193 0.000567916 -0.000129438 0.000649193 -0.000155348 -0.000100525 2.14057e-05 -0.000129438 3.04046e-05 2.14057e-05 -8.1505e-06 3.04046e-05 -1.28378e-05 -0.000129438 3.04046e-05 -0.000155348 3.87761e-05 3.04046e-05 -1.28378e-05 3.87761e-05 -1.73271e-05 -1.01734e-05 2.20441e-06 1.58415e-05 -2.33844e-06 2.20441e-06 -4.63824e-07 -2.33844e-06 1.82558e-07 1.58415e-05 -2.33844e-06 -5.33507e-05 5.21605e-06 -2.33844e-06 1.82558e-07 5.21605e-06 6.89018e-07 -4.63824e-07 9.60375e-08 1.82558e-07 6.51723e-08 9.60375e-08 -3.49363e-08 6.51723e-08 -7.26773e-08 1.82558e-07 6.51723e-08 6.89018e-07 -7.33932e-07 6.51723e-08 -7.26773e-08 -7.33932e-07 5.46417e-07 -5.33507e-05 5.21605e-06 -0.00190058 0.000395159 5.21605e-06 6.89018e-07 0.000395159 -7.97924e-05 -0.00190058 0.000395159 -0.0018472 0.000361287 0.000395159 -7.97924e-05 0.000361287 -6.67444e-05 6.89018e-07 -7.33932e-07 -7.97924e-05 1.5868e-05 -7.33932e-07 5.46417e-07 1.5868e-05 -5.58143e-06 -7.97924e-05 1.5868e-05 -6.67444e-05 1.13122e-05 1.5868e-05 -5.58143e-06 1.13122e-05 -3.07704e-06 -0.00309242 0.000783362 -0.00291504 0.000739728 0.000783362 -0.000198911 0.000739728 -0.000188196 -0.00291504 0.000739728 -0.000137443 3.09355e-05 0.000739728 -0.000188196 3.09355e-05 -6.80177e-06 -0.000198911 5.32351e-05 -0.000188196 5.0484e-05 5.32351e-05 -2.52587e-05 5.0484e-05 -2.40007e-05 -0.000188196 5.0484e-05 -6.80177e-06 1.49477e-06 5.0484e-05 -2.40007e-05 1.49477e-06 -5.80329e-07 -0.000137443 3.09355e-05 3.50938e-05 -8.15204e-06 3.09355e-05 -6.80177e-06 -8.15204e-06 1.86906e-06 3.50938e-05 -8.15204e-06 -1.01734e-05 2.20441e-06 -8.15204e-06 1.86906e-06 2.20441e-06 -4.63824e-07 -6.80177e-06 1.49477e-06 1.86906e-06 -4.37903e-07 1.49477e-06 -5.80329e-07 -4.37903e-07 1.8301e-07 1.86906e-06 -4.37903e-07 -4.63824e-07 9.60375e-08 -4.37903e-07 1.8301e-07 9.60375e-08 -3.49363e-08 -0.00270701 0.000649193 -0.00287535 0.000708838 0.000649193 -0.000155348 0.000708838 -0.000174828 -0.00287535 0.000708838 -0.00298437 0.000747945 0.000708838 -0.000174828 0.000747945 -0.000187773 -0.000155348 3.87761e-05 -0.000174828 4.52411e-05 3.87761e-05 -1.73271e-05 4.52411e-05 -2.08662e-05 -0.000174828 4.52411e-05 -0.000187773 4.96037e-05 4.52411e-05 -2.08662e-05 4.96037e-05 -2.32818e-05 -0.00298437 0.000747945 -0.00303548 0.000767424 0.000747945 -0.000187773 0.000767424 -0.000194462 -0.00303548 0.000767424 -0.00309242 0.000783362 0.000767424 -0.000194462 0.000783362 -0.000198911 -0.000187773 4.96037e-05 -0.000194462 5.19229e-05 4.96037e-05 -2.32818e-05 5.19229e-05 -2.45889e-05 -0.000194462 5.19229e-05 -0.000198911 5.32351e-05 5.19229e-05 -2.45889e-05 5.32351e-05 -2.52587e-05 -3.07704e-06 1.13123e-05 -4.59744e-06 1.43054e-05 1.13123e-05 -6.67452e-05 1.43054e-05 -7.65541e-05 -4.59744e-06 1.43054e-05 -8.1505e-06 2.14053e-05 1.43054e-05 -7.65541e-05 2.14053e-05 -0.000100525 -6.67452e-05 0.000361289 -7.65541e-05 0.000392878 0.000361289 -0.0018472 0.000392878 -0.00193639 -7.65541e-05 0.000392878 -0.000100525 0.000474171 0.000392878 -0.00193639 0.000474171 -0.00219145 -8.1505e-06 2.14053e-05 -1.28378e-05 3.04044e-05 2.14053e-05 -0.000100525 3.04044e-05 -0.000129438 -1.28378e-05 3.04044e-05 -1.73271e-05 3.87765e-05 3.04044e-05 -0.000129438 3.87765e-05 -0.000155348 -0.000100525 0.000474171 -0.000129438 0.000567915 0.000474171 -0.00219145 0.000567915 -0.00247181 -0.000129438 0.000567915 -0.000155348 0.000649194 0.000567915 -0.00247181 0.000649194 -0.00270701 -3.49363e-08 9.59846e-08 -7.26773e-08 6.57478e-08 9.59846e-08 -4.6344e-07 6.57478e-08 1.81744e-07 -7.26773e-08 6.57478e-08 5.46417e-07 -7.3425e-07 6.57478e-08 1.81744e-07 -7.3425e-07 6.89875e-07 -4.6344e-07 2.20398e-06 1.81744e-07 -2.33768e-06 2.20398e-06 -1.01732e-05 -2.33768e-06 1.58414e-05 1.81744e-07 -2.33768e-06 6.89875e-07 5.21549e-06 -2.33768e-06 1.58414e-05 5.21549e-06 -5.33517e-05 5.46417e-07 -7.3425e-07 -5.58143e-06 1.58681e-05 -7.3425e-07 6.89875e-07 1.58681e-05 -7.97928e-05 -5.58143e-06 1.58681e-05 -3.07704e-06 1.13123e-05 1.58681e-05 -7.97928e-05 1.13123e-05 -6.67452e-05 6.89875e-07 5.21549e-06 -7.97928e-05 0.000395158 5.21549e-06 -5.33517e-05 0.000395158 -0.00190058 -7.97928e-05 0.000395158 -6.67452e-05 0.000361289 0.000395158 -0.00190058 0.000361289 -0.0018472 -2.52587e-05 5.32352e-05 -2.40007e-05 5.04842e-05 5.32352e-05 -0.000198911 5.04842e-05 -0.000188196 -2.40007e-05 5.04842e-05 -5.80329e-07 1.49448e-06 5.04842e-05 -0.000188196 1.49448e-06 -6.8012e-06 -0.000198911 0.000783363 -0.000188196 0.000739727 0.000783363 -0.00309242 0.000739727 -0.00291504 -0.000188196 0.000739727 -6.8012e-06 3.09356e-05 0.000739727 -0.00291504 3.09356e-05 -0.000137443 -5.80329e-07 1.49448e-06 1.8301e-07 -4.37698e-07 1.49448e-06 -6.8012e-06 -4.37698e-07 1.86822e-06 1.8301e-07 -4.37698e-07 -3.49363e-08 9.59846e-08 -4.37698e-07 1.86822e-06 9.59846e-08 -4.6344e-07 -6.8012e-06 3.09356e-05 1.86822e-06 -8.15128e-06 3.09356e-05 -0.000137443 -8.15128e-06 3.5093e-05 1.86822e-06 -8.15128e-06 -4.6344e-07 2.20398e-06 -8.15128e-06 3.5093e-05 2.20398e-06 -1.01732e-05 -1.73271e-05 3.87765e-05 -2.08662e-05 4.5241e-05 3.87765e-05 -0.000155348 4.5241e-05 -0.000174828 -2.08662e-05 4.5241e-05 -2.32818e-05 4.96038e-05 4.5241e-05 -0.000174828 4.96038e-05 -0.000187773 -0.000155348 0.000649194 -0.000174828 0.000708838 0.000649194 -0.00270701 0.000708838 -0.00287535 -0.000174828 0.000708838 -0.000187773 0.000747945 0.000708838 -0.00287535 0.000747945 -0.00298438 -2.32818e-05 4.96038e-05 -2.45889e-05 5.19231e-05 4.96038e-05 -0.000187773 5.19231e-05 -0.000194462 -2.45889e-05 5.19231e-05 -2.52587e-05 5.32352e-05 5.19231e-05 -0.000194462 5.32352e-05 -0.000198911 -0.000187773 0.000747945 -0.000194462 0.000767424 0.000747945 -0.00298438 0.000767424 -0.00303548 -0.000194462 0.000767424 -0.000198911 0.000783363 0.000767424 -0.00303548 0.000783363 -0.00309242 -0.0018472 0.0281832 -0.00193639 0.0278753 0.0281832 0.0259746 0.0278753 0.0255457 -0.00193639 0.0278753 -0.00219145 0.0282001 0.0278753 0.0255457 0.0282001 0.0255337 0.0259746 0.0264044 0.0255457 0.0260178 0.0264044 0.0263136 0.0260178 0.0259109 0.0255457 0.0260178 0.0255337 0.026113 0.0260178 0.0259109 0.026113 0.0259673 -0.00219145 0.0282001 -0.00247181 0.0284715 0.0282001 0.0255337 0.0284715 0.0254302 -0.00247181 0.0284715 -0.00270701 0.0287071 0.0284715 0.0254302 0.0287071 0.0253487 0.0255337 0.026113 0.0254302 0.026135 0.026113 0.0259673 0.026135 0.0259414 0.0254302 0.026135 0.0253487 0.0261633 0.026135 0.0259414 0.0261633 0.0259263 -1.01732e-05 0.000128057 1.58414e-05 -0.000302917 0.000128057 0.000115677 -0.000302917 -0.000284754 1.58414e-05 -0.000302917 -5.33517e-05 0.00127863 -0.000302917 -0.000284754 0.00127863 0.00122016 0.000115677 0.000118362 -0.000284754 -0.000287229 0.000118362 0.000117698 -0.000287229 -0.000287181 -0.000284754 -0.000287229 0.00122016 0.00122436 -0.000287229 -0.000287181 0.00122436 0.00122657 -5.33517e-05 0.00127863 -0.00190058 0.0264076 0.00127863 0.00122016 0.0264076 0.0241113 -0.00190058 0.0264076 -0.0018472 0.0281832 0.0264076 0.0241113 0.0281832 0.0259746 0.00122016 0.00122436 0.0241113 0.0245895 0.00122436 0.00122657 0.0245895 0.0244761 0.0241113 0.0245895 0.0259746 0.0264044 0.0245895 0.0244761 0.0264044 0.0263136 -0.00309242 0.0293992 -0.00291504 0.0276224 0.0293992 0.0255199 0.0276224 0.0239643 -0.00291504 0.0276224 -0.000137443 0.00159671 0.0276224 0.0239643 0.00159671 0.00142827 0.0255199 0.0265169 0.0239643 0.0249063 0.0265169 0.0262061 0.0249063 0.0246119 0.0239643 0.0249063 0.00142827 0.00146634 0.0249063 0.0246119 0.00146634 0.00145638 -0.000137443 0.00159671 3.5093e-05 -0.000388489 0.00159671 0.00142827 -0.000388489 -0.000345224 3.5093e-05 -0.000388489 -1.01732e-05 0.000128057 -0.000388489 -0.000345224 0.000128057 0.000115677 0.00142827 0.00146634 -0.000345224 -0.000355348 0.00146634 0.00145638 -0.000355348 -0.000352558 -0.000345224 -0.000355348 0.000115677 0.000118362 -0.000355348 -0.000352558 0.000118362 0.000117698 -0.00270701 0.0287071 -0.00287535 0.0288749 0.0287071 0.0253487 0.0288749 0.0252879 -0.00287535 0.0288749 -0.00298438 0.0289945 0.0288749 0.0252879 0.0289945 0.025259 0.0253487 0.0261633 0.0252879 0.0261838 0.0261633 0.0259263 0.0261838 0.0259137 0.0252879 0.0261838 0.025259 0.0262083 0.0261838 0.0259137 0.0262083 0.0259162 -0.00298438 0.0289945 -0.00303548 0.0289756 0.0289945 0.025259 0.0289756 0.0251693 -0.00303548 0.0289756 -0.00309242 0.0293992 0.0289756 0.0251693 0.0293992 0.0255199 0.025259 0.0262083 0.0251693 0.0261456 0.0262083 0.0259162 0.0261456 0.0258419 0.0251693 0.0261456 0.0255199 0.0265169 0.0261456 0.0258419 0.0265169 0.0262061 
