# vtk DataFile Version 3.0
#This file was generated by the deal.II library on 2023/3/9 at 14:21:08
ASCII
DATASET UNSTRUCTURED_GRID

FIELD FieldData 2
CYCLE 1 1 int
123
TIME 1 1 double
0.246
POINTS 64 double
2 0 0
0 0 2
3 1 0
0 1 3
3 -1 0
0 -1 3
2 0 0
0 0 2
4 0 0
0 0 4
3 -1 0
0 -1 3
3 1 0
0 1 3
4 0 0
0 0 4
0 0 2
-2 0 0
0 1 3
-3 1 0
0 -1 3
-3 -1 0
0 0 2
-2 0 0
0 0 4
-4 0 0
0 -1 3
-3 -1 0
0 1 3
-3 1 0
0 0 4
-4 0 0
-2 0 0
0 0 -2
-3 1 0
0 1 -3
-3 -1 0
0 -1 -3
-2 0 0
0 0 -2
-4 0 0
0 0 -4
-3 -1 0
0 -1 -3
-3 1 0
0 1 -3
-4 0 0
0 0 -4
0 0 -2
2 0 0
0 1 -3
3 1 0
0 -1 -3
3 -1 0
0 0 -2
2 0 0
0 0 -4
4 0 0
0 -1 -3
3 -1 0
0 1 -3
3 1 0
0 0 -4
4 0 0

CELLS 16 80
4	0	1	3	2
4	4	5	7	6
4	8	9	11	10
4	12	13	15	14
4	16	17	19	18
4	20	21	23	22
4	24	25	27	26
4	28	29	31	30
4	32	33	35	34
4	36	37	39	38
4	40	41	43	42
4	44	45	47	46
4	48	49	51	50
4	52	53	55	54
4	56	57	59	58
4	60	61	63	62

CELL_TYPES 16
 9 9 9 9 9 9 9 9 9 9 9 9 9 9 9 9
POINT_DATA 64
SCALARS U double 1
LOOKUP_TABLE default
-46.5385 28.423 24.5315 27.7667 24.5315 27.7667 -46.5385 28.423 16.7071 27.2014 24.5315 27.7667 24.5315 27.7667 16.7071 27.2014 28.423 32.1893 27.7667 -38.6827 27.7667 -38.6827 28.423 32.1893 27.2014 -30.7099 27.7667 -38.6827 27.7667 -38.6827 27.2014 -30.7099 32.1893 28.423 -38.6827 27.7667 -38.6827 27.7667 32.1893 28.423 -30.7099 27.2014 -38.6827 27.7667 -38.6827 27.7667 -30.7099 27.2014 28.423 -46.5385 27.7667 24.5315 27.7667 24.5315 28.423 -46.5385 27.2014 16.7071 27.7667 24.5315 27.7667 24.5315 27.2014 16.7071 
