# vtk DataFile Version 3.0
#This file was generated by the deal.II library on 2023/3/8 at 18:39:27
ASCII
DATASET UNSTRUCTURED_GRID

FIELD FieldData 2
CYCLE 1 1 int
244
TIME 1 1 double
0.488
POINTS 1024 double
2 0 0
1.84776 1.22465e-16 0.765367
2.07612 0.382683 0
1.91809 0.382683 0.794497
1.84776 1.22465e-16 0.765367
1.41421 1.22465e-16 1.41421
1.91809 0.382683 0.794497
1.46804 0.382683 1.46804
2.07612 0.382683 0
1.91809 0.382683 0.794497
2.29289 0.707107 0
2.11836 0.707107 0.877452
1.91809 0.382683 0.794497
1.46804 0.382683 1.46804
2.11836 0.707107 0.877452
1.62132 0.707107 1.62132
1.41421 1.22465e-16 1.41421
0.765367 1.22465e-16 1.84776
1.46804 0.382683 1.46804
0.794497 0.382683 1.91809
0.765367 1.22465e-16 1.84776
0 0 2
0.794497 0.382683 1.91809
1.27126e-16 0.382683 2.07612
1.46804 0.382683 1.46804
0.794497 0.382683 1.91809
1.62132 0.707107 1.62132
0.877452 0.707107 2.11836
0.794497 0.382683 1.91809
1.27126e-16 0.382683 2.07612
0.877452 0.707107 2.11836
1.40399e-16 0.707107 2.29289
2.29289 0.707107 0
2.11836 0.707107 0.877452
2.61732 0.92388 0
2.41809 0.92388 1.0016
2.11836 0.707107 0.877452
1.62132 0.707107 1.62132
2.41809 0.92388 1.0016
1.85072 0.92388 1.85072
2.61732 0.92388 0
2.41809 0.92388 1.0016
3 1 0
2.77164 1 1.14805
2.41809 0.92388 1.0016
1.85072 0.92388 1.85072
2.77164 1 1.14805
2.12132 1 2.12132
1.62132 0.707107 1.62132
0.877452 0.707107 2.11836
1.85072 0.92388 1.85072
1.0016 0.92388 2.41809
0.877452 0.707107 2.11836
1.40399e-16 0.707107 2.29289
1.0016 0.92388 2.41809
1.60264e-16 0.92388 2.61732
1.85072 0.92388 1.85072
1.0016 0.92388 2.41809
2.12132 1 2.12132
1.14805 1 2.77164
1.0016 0.92388 2.41809
1.60264e-16 0.92388 2.61732
1.14805 1 2.77164
0 1 3
3 -1 0
2.77164 -1 1.14805
2.61732 -0.92388 0
2.41809 -0.92388 1.0016
2.77164 -1 1.14805
2.12132 -1 2.12132
2.41809 -0.92388 1.0016
1.85072 -0.92388 1.85072
2.61732 -0.92388 0
2.41809 -0.92388 1.0016
2.29289 -0.707107 0
2.11836 -0.707107 0.877452
2.41809 -0.92388 1.0016
1.85072 -0.92388 1.85072
2.11836 -0.707107 0.877452
1.62132 -0.707107 1.62132
2.12132 -1 2.12132
1.14805 -1 2.77164
1.85072 -0.92388 1.85072
1.0016 -0.92388 2.41809
1.14805 -1 2.77164
0 -1 3
1.0016 -0.92388 2.41809
1.60264e-16 -0.92388 2.61732
1.85072 -0.92388 1.85072
1.0016 -0.92388 2.41809
1.62132 -0.707107 1.62132
0.877452 -0.707107 2.11836
1.0016 -0.92388 2.41809
1.60264e-16 -0.92388 2.61732
0.877452 -0.707107 2.11836
1.40399e-16 -0.707107 2.29289
2.29289 -0.707107 0
2.11836 -0.707107 0.877452
2.07612 -0.382683 0
1.91809 -0.382683 0.794497
2.11836 -0.707107 0.877452
1.62132 -0.707107 1.62132
1.91809 -0.382683 0.794497
1.46804 -0.382683 1.46804
2.07612 -0.382683 0
1.91809 -0.382683 0.794497
2 0 0
1.84776 1.22465e-16 0.765367
1.91809 -0.382683 0.794497
1.46804 -0.382683 1.46804
1.84776 1.22465e-16 0.765367
1.41421 1.22465e-16 1.41421
1.62132 -0.707107 1.62132
0.877452 -0.707107 2.11836
1.46804 -0.382683 1.46804
0.794497 -0.382683 1.91809
0.877452 -0.707107 2.11836
1.40399e-16 -0.707107 2.29289
0.794497 -0.382683 1.91809
1.27126e-16 -0.382683 2.07612
1.46804 -0.382683 1.46804
0.794497 -0.382683 1.91809
1.41421 1.22465e-16 1.41421
0.765367 1.22465e-16 1.84776
0.794497 -0.382683 1.91809
1.27126e-16 -0.382683 2.07612
0.765367 1.22465e-16 1.84776
0 0 2
4 0 0
3.69552 0 1.53073
3.92388 -0.382683 0
3.62519 -0.382683 1.5016
3.69552 0 1.53073
2.82843 0 2.82843
3.62519 -0.382683 1.5016
2.7746 -0.382683 2.7746
3.92388 -0.382683 0
3.62519 -0.382683 1.5016
3.70711 -0.707107 0
3.42492 -0.707107 1.41865
3.62519 -0.382683 1.5016
2.7746 -0.382683 2.7746
3.42492 -0.707107 1.41865
2.62132 -0.707107 2.62132
2.82843 0 2.82843
1.53073 0 3.69552
2.7746 -0.382683 2.7746
1.5016 -0.382683 3.62519
1.53073 0 3.69552
0 0 4
1.5016 -0.382683 3.62519
2.40268e-16 -0.382683 3.92388
2.7746 -0.382683 2.7746
1.5016 -0.382683 3.62519
2.62132 -0.707107 2.62132
1.41865 -0.707107 3.42492
1.5016 -0.382683 3.62519
2.40268e-16 -0.382683 3.92388
1.41865 -0.707107 3.42492
2.26995e-16 -0.707107 3.70711
3.70711 -0.707107 0
3.42492 -0.707107 1.41865
3.38268 -0.92388 0
3.12519 -0.92388 1.2945
3.42492 -0.707107 1.41865
2.62132 -0.707107 2.62132
3.12519 -0.92388 1.2945
2.39192 -0.92388 2.39192
3.38268 -0.92388 0
3.12519 -0.92388 1.2945
3 -1 0
2.77164 -1 1.14805
3.12519 -0.92388 1.2945
2.39192 -0.92388 2.39192
2.77164 -1 1.14805
2.12132 -1 2.12132
2.62132 -0.707107 2.62132
1.41865 -0.707107 3.42492
2.39192 -0.92388 2.39192
1.2945 -0.92388 3.12519
1.41865 -0.707107 3.42492
2.26995e-16 -0.707107 3.70711
1.2945 -0.92388 3.12519
2.0713e-16 -0.92388 3.38268
2.39192 -0.92388 2.39192
1.2945 -0.92388 3.12519
2.12132 -1 2.12132
1.14805 -1 2.77164
1.2945 -0.92388 3.12519
2.0713e-16 -0.92388 3.38268
1.14805 -1 2.77164
0 -1 3
3 1 0
2.77164 1 1.14805
3.38268 0.92388 0
3.12519 0.92388 1.2945
2.77164 1 1.14805
2.12132 1 2.12132
3.12519 0.92388 1.2945
2.39192 0.92388 2.39192
3.38268 0.92388 0
3.12519 0.92388 1.2945
3.70711 0.707107 0
3.42492 0.707107 1.41865
3.12519 0.92388 1.2945
2.39192 0.92388 2.39192
3.42492 0.707107 1.41865
2.62132 0.707107 2.62132
2.12132 1 2.12132
1.14805 1 2.77164
2.39192 0.92388 2.39192
1.2945 0.92388 3.12519
1.14805 1 2.77164
0 1 3
1.2945 0.92388 3.12519
2.0713e-16 0.92388 3.38268
2.39192 0.92388 2.39192
1.2945 0.92388 3.12519
2.62132 0.707107 2.62132
1.41865 0.707107 3.42492
1.2945 0.92388 3.12519
2.0713e-16 0.92388 3.38268
1.41865 0.707107 3.42492
2.26995e-16 0.707107 3.70711
3.70711 0.707107 0
3.42492 0.707107 1.41865
3.92388 0.382683 0
3.62519 0.382683 1.5016
3.42492 0.707107 1.41865
2.62132 0.707107 2.62132
3.62519 0.382683 1.5016
2.7746 0.382683 2.7746
3.92388 0.382683 0
3.62519 0.382683 1.5016
4 0 0
3.69552 0 1.53073
3.62519 0.382683 1.5016
2.7746 0.382683 2.7746
3.69552 0 1.53073
2.82843 0 2.82843
2.62132 0.707107 2.62132
1.41865 0.707107 3.42492
2.7746 0.382683 2.7746
1.5016 0.382683 3.62519
1.41865 0.707107 3.42492
2.26995e-16 0.707107 3.70711
1.5016 0.382683 3.62519
2.40268e-16 0.382683 3.92388
2.7746 0.382683 2.7746
1.5016 0.382683 3.62519
2.82843 0 2.82843
1.53073 0 3.69552
1.5016 0.382683 3.62519
2.40268e-16 0.382683 3.92388
1.53073 0 3.69552
0 0 4
0 0 2
-0.765367 1.22465e-16 1.84776
1.27126e-16 0.382683 2.07612
-0.794497 0.382683 1.91809
-0.765367 1.22465e-16 1.84776
-1.41421 1.22465e-16 1.41421
-0.794497 0.382683 1.91809
-1.46804 0.382683 1.46804
1.27126e-16 0.382683 2.07612
-0.794497 0.382683 1.91809
1.40399e-16 0.707107 2.29289
-0.877452 0.707107 2.11836
-0.794497 0.382683 1.91809
-1.46804 0.382683 1.46804
-0.877452 0.707107 2.11836
-1.62132 0.707107 1.62132
-1.41421 1.22465e-16 1.41421
-1.84776 1.22465e-16 0.765367
-1.46804 0.382683 1.46804
-1.91809 0.382683 0.794497
-1.84776 1.22465e-16 0.765367
-2 0 0
-1.91809 0.382683 0.794497
-2.07612 0.382683 2.54251e-16
-1.46804 0.382683 1.46804
-1.91809 0.382683 0.794497
-1.62132 0.707107 1.62132
-2.11836 0.707107 0.877452
-1.91809 0.382683 0.794497
-2.07612 0.382683 2.54251e-16
-2.11836 0.707107 0.877452
-2.29289 0.707107 2.80798e-16
1.40399e-16 0.707107 2.29289
-0.877452 0.707107 2.11836
1.60264e-16 0.92388 2.61732
-1.0016 0.92388 2.41809
-0.877452 0.707107 2.11836
-1.62132 0.707107 1.62132
-1.0016 0.92388 2.41809
-1.85072 0.92388 1.85072
1.60264e-16 0.92388 2.61732
-1.0016 0.92388 2.41809
0 1 3
-1.14805 1 2.77164
-1.0016 0.92388 2.41809
-1.85072 0.92388 1.85072
-1.14805 1 2.77164
-2.12132 1 2.12132
-1.62132 0.707107 1.62132
-2.11836 0.707107 0.877452
-1.85072 0.92388 1.85072
-2.41809 0.92388 1.0016
-2.11836 0.707107 0.877452
-2.29289 0.707107 2.80798e-16
-2.41809 0.92388 1.0016
-2.61732 0.92388 3.20529e-16
-1.85072 0.92388 1.85072
-2.41809 0.92388 1.0016
-2.12132 1 2.12132
-2.77164 1 1.14805
-2.41809 0.92388 1.0016
-2.61732 0.92388 3.20529e-16
-2.77164 1 1.14805
-3 1 0
0 -1 3
-1.14805 -1 2.77164
1.60264e-16 -0.92388 2.61732
-1.0016 -0.92388 2.41809
-1.14805 -1 2.77164
-2.12132 -1 2.12132
-1.0016 -0.92388 2.41809
-1.85072 -0.92388 1.85072
1.60264e-16 -0.92388 2.61732
-1.0016 -0.92388 2.41809
1.40399e-16 -0.707107 2.29289
-0.877452 -0.707107 2.11836
-1.0016 -0.92388 2.41809
-1.85072 -0.92388 1.85072
-0.877452 -0.707107 2.11836
-1.62132 -0.707107 1.62132
-2.12132 -1 2.12132
-2.77164 -1 1.14805
-1.85072 -0.92388 1.85072
-2.41809 -0.92388 1.0016
-2.77164 -1 1.14805
-3 -1 0
-2.41809 -0.92388 1.0016
-2.61732 -0.92388 3.20529e-16
-1.85072 -0.92388 1.85072
-2.41809 -0.92388 1.0016
-1.62132 -0.707107 1.62132
-2.11836 -0.707107 0.877452
-2.41809 -0.92388 1.0016
-2.61732 -0.92388 3.20529e-16
-2.11836 -0.707107 0.877452
-2.29289 -0.707107 2.80798e-16
1.40399e-16 -0.707107 2.29289
-0.877452 -0.707107 2.11836
1.27126e-16 -0.382683 2.07612
-0.794497 -0.382683 1.91809
-0.877452 -0.707107 2.11836
-1.62132 -0.707107 1.62132
-0.794497 -0.382683 1.91809
-1.46804 -0.382683 1.46804
1.27126e-16 -0.382683 2.07612
-0.794497 -0.382683 1.91809
0 0 2
-0.765367 1.22465e-16 1.84776
-0.794497 -0.382683 1.91809
-1.46804 -0.382683 1.46804
-0.765367 1.22465e-16 1.84776
-1.41421 1.22465e-16 1.41421
-1.62132 -0.707107 1.62132
-2.11836 -0.707107 0.877452
-1.46804 -0.382683 1.46804
-1.91809 -0.382683 0.794497
-2.11836 -0.707107 0.877452
-2.29289 -0.707107 2.80798e-16
-1.91809 -0.382683 0.794497
-2.07612 -0.382683 2.54251e-16
-1.46804 -0.382683 1.46804
-1.91809 -0.382683 0.794497
-1.41421 1.22465e-16 1.41421
-1.84776 1.22465e-16 0.765367
-1.91809 -0.382683 0.794497
-2.07612 -0.382683 2.54251e-16
-1.84776 1.22465e-16 0.765367
-2 0 0
0 0 4
-1.53073 0 3.69552
2.40268e-16 -0.382683 3.92388
-1.5016 -0.382683 3.62519
-1.53073 0 3.69552
-2.82843 0 2.82843
-1.5016 -0.382683 3.62519
-2.7746 -0.382683 2.7746
2.40268e-16 -0.382683 3.92388
-1.5016 -0.382683 3.62519
2.26995e-16 -0.707107 3.70711
-1.41865 -0.707107 3.42492
-1.5016 -0.382683 3.62519
-2.7746 -0.382683 2.7746
-1.41865 -0.707107 3.42492
-2.62132 -0.707107 2.62132
-2.82843 0 2.82843
-3.69552 0 1.53073
-2.7746 -0.382683 2.7746
-3.62519 -0.382683 1.5016
-3.69552 0 1.53073
-4 0 0
-3.62519 -0.382683 1.5016
-3.92388 -0.382683 4.80537e-16
-2.7746 -0.382683 2.7746
-3.62519 -0.382683 1.5016
-2.62132 -0.707107 2.62132
-3.42492 -0.707107 1.41865
[...]
POINT_DATA 1024
SCALARS U double 1
LOOKUP_TABLE default
0.114202 0.113906 0.142825 0.142607 0.113906 0.111473 0.142607 0.140186 0.142825 0.142607 0.16591 0.165834 0.142607 0.140186 0.165834 0.164081 0.111473 0.0913823 0.140186 0.117554 0.0913823 0.0345182 0.117554 0.0493078 0.140186 0.117554 0.164081 0.141661 0.117554 0.0493078 0.141661 0.0629209 0.16591 0.165834 0.180622 0.180668 0.165834 0.164081 0.180668 0.179871 0.180622 0.180668 0.18441 0.184502 0.180668 0.179871 0.184502 0.184557 0.164081 0.141661 0.179871 0.159607 0.141661 0.0629209 0.159607 0.0715718 0.179871 0.159607 0.184557 0.167333 0.159607 0.0715718 0.167333 0.0726782 0.019499 0.0195578 0.023913 0.0239487 0.0195578 0.0193255 0.0239487 0.0231326 0.023913 0.0239487 0.0443504 0.0442736 0.0239487 0.0231326 0.0442736 0.0428528 0.0193255 0.0149016 0.0231326 0.0176778 0.0149016 0.00485883 0.0176778 0.00662886 0.0231326 0.0176778 0.0428528 0.0338733 0.0176778 0.00662886 0.0338733 0.0118174 0.0443504 0.0442736 0.0793094 0.0790737 0.0442736 0.0428528 0.0790737 0.0771018 0.0793094 0.0790737 0.114202 0.113906 0.0790737 0.0771018 0.113906 0.111473 0.0428528 0.0338733 0.0771018 0.0623071 0.0338733 0.0118174 0.0623071 0.0214069 0.0771018 0.0623071 0.111473 0.0913823 0.0623071 0.0214069 0.0913823 0.0345182 0.114536 0.11445 0.0837769 0.0837008 0.11445 0.115472 0.0837008 0.0845798 0.0837769 0.0837008 0.0503176 0.0502829 0.0837008 0.0845798 0.0502829 0.0509377 0.115472 0.107878 0.0845798 0.0781042 0.107878 0.0206013 0.0781042 0.0115102 0.0845798 0.0781042 0.0509377 0.0451686 0.0781042 0.0115102 0.0451686 0.00719041 0.0503176 0.0502829 0.027558 0.0275826 0.0502829 0.0509377 0.0275826 0.027852 0.027558 0.0275826 0.019499 0.0195578 0.0275826 0.027852 0.0195578 0.0193255 0.0509377 0.0451686 0.027852 0.0229532 0.0451686 0.00719041 0.0229532 0.00525585 0.027852 0.0229532 0.0193255 0.0149016 0.0229532 0.00525585 0.0149016 0.00485883 0.18441 0.184502 0.177296 0.17736 0.184502 0.184557 0.17736 0.178008 0.177296 0.17736 0.161105 0.161104 0.17736 0.178008 0.161104 0.162086 0.184557 0.167333 0.178008 0.163828 0.167333 0.0726782 0.163828 0.0656105 0.178008 0.163828 0.162086 0.150535 0.163828 0.0656105 0.150535 0.0517814 0.161105 0.161104 0.139462 0.139402 0.161104 0.162086 0.139402 0.140489 0.139462 0.139402 0.114536 0.11445 0.139402 0.140489 0.11445 0.115472 0.162086 0.150535 0.140489 0.131132 0.150535 0.0517814 0.131132 0.0350783 0.140489 0.131132 0.115472 0.107878 0.131132 0.0350783 0.107878 0.0206013 0.0345182 0.00735741 0.0493078 0.0111389 0.00735741 0.000647602 0.0111389 0.000596754 0.0493078 0.0111389 0.0629209 0.013645 0.0111389 0.000596754 0.013645 0.000122752 0.000647602 -0.000162732 0.000596754 -0.000227554 -0.000162732 1.21079e-05 -0.000227554 4.34852e-05 0.000596754 -0.000227554 0.000122752 -0.000232012 -0.000227554 4.34852e-05 -0.000232012 8.07506e-05 0.0629209 0.013645 0.0715718 0.013667 0.013645 0.000122752 0.013667 -0.000534648 0.0715718 0.013667 0.0726782 0.0114615 0.013667 -0.000534648 0.0114615 -0.000986611 0.000122752 -0.000232012 -0.000534648 -0.000139359 -0.000232012 8.07506e-05 -0.000139359 8.32845e-05 -0.000534648 -0.000139359 -0.000986611 -4.10724e-06 -0.000139359 8.32845e-05 -4.10724e-06 4.62057e-05 0.00485883 0.000263078 0.00662886 0.000963651 0.000263078 -4.41988e-05 0.000963651 -1.91824e-05 0.00662886 0.000963651 0.0118174 0.00211318 0.000963651 -1.91824e-05 0.00211318 0.000124013 -4.41988e-05 4.64178e-06 -1.91824e-05 -1.25177e-05 4.64178e-06 -2.19244e-06 -1.25177e-05 2.18805e-06 -1.91824e-05 -1.25177e-05 0.000124013 -4.68168e-05 -1.25177e-05 2.18805e-06 -4.68168e-05 5.15998e-06 0.0118174 0.00211318 0.0214069 0.0041037 0.00211318 0.000124013 0.0041037 0.000400846 0.0214069 0.0041037 0.0345182 0.00735741 0.0041037 0.000400846 0.00735741 0.000647602 0.000124013 -4.68168e-05 0.000400846 -9.78307e-05 -4.68168e-05 5.15998e-06 -9.78307e-05 4.87642e-06 0.000400846 -9.78307e-05 0.000647602 -0.000162732 -9.78307e-05 4.87642e-06 -0.000162732 1.21079e-05 0.0206013 0.000893045 0.0115102 5.71735e-05 0.000893045 -0.000225272 5.71735e-05 -6.57897e-05 0.0115102 5.71735e-05 0.00719041 -0.000255728 5.71735e-05 -6.57897e-05 -0.000255728 -9.76424e-06 -0.000225272 4.35412e-05 -6.57897e-05 1.7826e-05 4.35412e-05 -1.18305e-05 1.7826e-05 -5.61965e-06 -6.57897e-05 1.7826e-05 -9.76424e-06 9.95549e-06 1.7826e-05 -5.61965e-06 9.95549e-06 -4.85371e-06 0.00719041 -0.000255728 0.00525585 -0.000145613 -0.000255728 -9.76424e-06 -0.000145613 -2.18969e-05 0.00525585 -0.000145613 0.00485883 0.000263078 -0.000145613 -2.18969e-05 0.000263078 -4.41988e-05 -9.76424e-06 9.95549e-06 -2.18969e-05 9.89522e-06 9.95549e-06 -4.85371e-06 9.89522e-06 -5.00632e-06 -2.18969e-05 9.89522e-06 -4.41988e-05 4.64178e-06 9.89522e-06 -5.00632e-06 4.64178e-06 -2.19244e-06 0.0726782 0.0114615 0.0656105 0.00817344 0.0114615 -0.000986611 0.00817344 -0.00105504 0.0656105 0.00817344 0.0517814 0.00494312 0.00817344 -0.00105504 0.00494312 -0.000826236 -0.000986611 -4.10724e-06 -0.00105504 9.08578e-05 -4.10724e-06 4.62057e-05 9.08578e-05 2.31963e-06 -0.00105504 9.08578e-05 -0.000826236 0.000112525 9.08578e-05 2.31963e-06 0.000112525 -2.06349e-05 0.0517814 0.00494312 0.0350783 0.00245938 0.00494312 -0.000826236 0.00245938 -0.000497297 0.0350783 0.00245938 0.0206013 0.000893045 0.00245938 -0.000497297 0.000893045 -0.000225272 -0.000826236 0.000112525 -0.000497297 8.3384e-05 0.000112525 -2.06349e-05 8.3384e-05 -2.07977e-05 -0.000497297 8.3384e-05 -0.000225272 4.35412e-05 8.3384e-05 -2.07977e-05 4.35412e-05 -1.18305e-05 1.21079e-05 -0.000162739 4.34852e-05 -0.000227558 -0.000162739 0.000647597 -0.000227558 0.000596741 4.34852e-05 -0.000227558 8.07506e-05 -0.00023202 -0.000227558 0.000596741 -0.00023202 0.000122741 0.000647597 0.00735741 0.000596741 0.0111389 0.00735741 0.0345182 0.0111389 0.0493078 0.000596741 0.0111389 0.000122741 0.013645 0.0111389 0.0493078 0.013645 0.0629209 8.07506e-05 -0.00023202 8.32845e-05 -0.000139361 -0.00023202 0.000122741 -0.000139361 -0.000534649 8.32845e-05 -0.000139361 4.62057e-05 -4.10343e-06 -0.000139361 -0.000534649 -4.10343e-06 -0.000986607 0.000122741 0.013645 -0.000534649 0.013667 0.013645 0.0629209 0.013667 0.0715718 -0.000534649 0.013667 -0.000986607 0.0114615 0.013667 0.0715718 0.0114615 0.0726782 -2.19244e-06 4.64523e-06 2.18805e-06 -1.25119e-05 4.64523e-06 -4.4197e-05 -1.25119e-05 -1.91848e-05 2.18805e-06 -1.25119e-05 5.15998e-06 -4.68186e-05 -1.25119e-05 -1.91848e-05 -4.68186e-05 0.000124018 -4.4197e-05 0.00026308 -1.91848e-05 0.000963661 0.00026308 0.00485883 0.000963661 0.00662887 -1.91848e-05 0.000963661 0.000124018 0.00211318 0.000963661 0.00662887 0.00211318 0.0118174 5.15998e-06 -4.68186e-05 4.87642e-06 -9.78279e-05 -4.68186e-05 0.000124018 -9.78279e-05 0.000400839 4.87642e-06 -9.78279e-05 1.21079e-05 -0.000162739 -9.78279e-05 0.000400839 -0.000162739 0.000647597 0.000124018 0.00211318 0.000400839 0.00410371 0.00211318 0.0118174 0.00410371 0.0214069 0.000400839 0.00410371 0.000647597 0.00735741 0.00410371 0.0214069 0.00735741 0.0345182 -1.18305e-05 4.35405e-05 -5.61965e-06 1.78287e-05 4.35405e-05 -0.000225267 1.78287e-05 -6.57865e-05 -5.61965e-06 1.78287e-05 -4.85371e-06 9.95376e-06 1.78287e-05 -6.57865e-05 9.95376e-06 -9.75855e-06 -0.000225267 0.000893042 -6.57865e-05 5.7168e-05 0.000893042 0.0206013 5.7168e-05 0.0115102 -6.57865e-05 5.7168e-05 -9.75855e-06 -0.000255733 5.7168e-05 0.0115102 -0.000255733 0.00719042 -4.85371e-06 9.95376e-06 -5.00632e-06 9.89535e-06 9.95376e-06 -9.75855e-06 9.89535e-06 -2.18942e-05 -5.00632e-06 9.89535e-06 -2.19244e-06 4.64523e-06 9.89535e-06 -2.18942e-05 4.64523e-06 -4.4197e-05 -9.75855e-06 -0.000255733 -2.18942e-05 -0.000145613 -0.000255733 0.00719042 -0.000145613 0.00525586 -2.18942e-05 -0.000145613 -4.4197e-05 0.00026308 -0.000145613 0.00525586 0.00026308 0.00485883 4.62057e-05 -4.10343e-06 2.31963e-06 9.08631e-05 -4.10343e-06 -0.000986607 9.08631e-05 -0.00105503 2.31963e-06 9.08631e-05 -2.06349e-05 0.000112528 9.08631e-05 -0.00105503 0.000112528 -0.000826223 -0.000986607 0.0114615 -0.00105503 0.00817343 0.0114615 0.0726782 0.00817343 0.0656105 -0.00105503 0.00817343 -0.000826223 0.00494312 0.00817343 0.0656105 0.00494312 0.0517814 -2.06349e-05 0.000112528 -2.07977e-05 8.33882e-05 0.000112528 -0.000826223 8.33882e-05 -0.000497291 -2.07977e-05 8.33882e-05 -1.18305e-05 4.35405e-05 8.33882e-05 -0.000497291 4.35405e-05 -0.000225267 -0.000826223 0.00494312 -0.000497291 0.00245938 0.00494312 0.0517814 0.00245938 0.0350783 -0.000497291 0.00245938 -0.000225267 0.000893042 0.00245938 0.0350783 0.000893042 0.0206013 0.0345182 0.0913823 0.0493078 0.117554 0.0913823 0.111473 0.117554 0.140186 0.0493078 0.117554 0.0629209 0.141661 0.117554 0.140186 0.141661 0.164081 0.111473 0.113906 0.140186 0.142607 0.113906 0.114202 0.142607 0.142825 0.140186 0.142607 0.164081 0.165834 0.142607 0.142825 0.165834 0.16591 0.0629209 0.141661 0.0715718 0.159607 0.141661 0.164081 0.159607 0.179871 0.0715718 0.159607 0.0726782 0.167333 0.159607 0.179871 0.167333 0.184557 0.164081 0.165834 0.179871 0.180668 0.165834 0.16591 0.180668 0.180622 0.179871 0.180668 0.184557 0.184502 0.180668 0.180622 0.184502 0.18441 0.00485883 0.0149017 0.00662887 0.0176778 0.0149017 0.0193255 0.0176778 0.0231326 0.00662887 0.0176778 0.0118174 0.0338733 0.0176778 0.0231326 0.0338733 0.0428528 0.0193255 0.0195578 0.0231326 0.0239486 0.0195578 0.019499 0.0239486 0.023913 0.0231326 0.0239486 0.0428528 0.0442736 0.0239486 0.023913 0.0442736 0.0443504 0.0118174 0.0338733 0.0214069 0.0623071 0.0338733 0.0428528 0.0623071 0.0771018 0.0214069 0.0623071 0.0345182 0.0913823 0.0623071 0.0771018 0.0913823 0.111473 0.0428528 0.0442736 0.0771018 0.0790737 0.0442736 0.0443504 0.0790737 0.0793094 0.0771018 0.0790737 0.111473 0.113906 0.0790737 0.0793094 0.113906 0.114202 0.0206013 0.107878 0.0115102 0.0781042 0.107878 0.115472 0.0781042 0.0845798 0.0115102 0.0781042 0.00719042 0.0451686 0.0781042 0.0845798 0.0451686 0.0509377 0.115472 0.11445 0.0845798 0.0837008 0.11445 0.114536 0.0837008 0.0837769 0.0845798 0.0837008 0.0509377 0.0502829 0.0837008 0.0837769 0.0502829 0.0503176 0.00719042 0.0451686 0.00525586 0.0229532 0.0451686 0.0509377 0.0229532 0.027852 0.00525586 0.0229532 0.00485883 0.0149017 0.0229532 0.027852 0.0149017 0.0193255 0.0509377 0.0502829 0.027852 0.0275825 0.0502829 0.0503176 0.0275825 0.027558 0.027852 0.0275825 0.0193255 0.0195578 0.0275825 0.027558 0.0195578 0.019499 0.0726782 0.167333 0.0656105 0.163828 0.167333 0.184557 0.163828 0.178008 0.0656105 0.163828 0.0517814 0.150535 0.163828 0.178008 0.150535 0.162086 0.184557 0.184502 0.178008 0.17736 0.184502 0.18441 0.17736 0.177296 0.178008 0.17736 0.162086 0.161104 0.17736 0.177296 0.161104 0.161105 0.0517814 0.150535 0.0350783 0.131132 0.150535 0.162086 0.131132 0.140489 0.0350783 0.131132 0.0206013 0.107878 0.131132 0.140489 0.107878 0.115472 0.162086 0.161104 0.140489 0.139402 0.161104 0.161105 0.139402 0.139462 0.140489 0.139402 0.115472 0.11445 0.139402 0.139462 0.11445 0.114536 
