# vtk DataFile Version 3.0
#This file was generated by the deal.II library on 2023/3/8 at 18:39:24
ASCII
DATASET UNSTRUCTURED_GRID

FIELD FieldData 2
CYCLE 1 1 int
136
TIME 1 1 double
0.272
POINTS 1024 double
2 0 0
1.84776 1.22465e-16 0.765367
2.07612 0.382683 0
1.91809 0.382683 0.794497
1.84776 1.22465e-16 0.765367
1.41421 1.22465e-16 1.41421
1.91809 0.382683 0.794497
1.46804 0.382683 1.46804
2.07612 0.382683 0
1.91809 0.382683 0.794497
2.29289 0.707107 0
2.11836 0.707107 0.877452
1.91809 0.382683 0.794497
1.46804 0.382683 1.46804
2.11836 0.707107 0.877452
1.62132 0.707107 1.62132
1.41421 1.22465e-16 1.41421
0.765367 1.22465e-16 1.84776
1.46804 0.382683 1.46804
0.794497 0.382683 1.91809
0.765367 1.22465e-16 1.84776
0 0 2
0.794497 0.382683 1.91809
1.27126e-16 0.382683 2.07612
1.46804 0.382683 1.46804
0.794497 0.382683 1.91809
1.62132 0.707107 1.62132
0.877452 0.707107 2.11836
0.794497 0.382683 1.91809
1.27126e-16 0.382683 2.07612
0.877452 0.707107 2.11836
1.40399e-16 0.707107 2.29289
2.29289 0.707107 0
2.11836 0.707107 0.877452
2.61732 0.92388 0
2.41809 0.92388 1.0016
2.11836 0.707107 0.877452
1.62132 0.707107 1.62132
2.41809 0.92388 1.0016
1.85072 0.92388 1.85072
2.61732 0.92388 0
2.41809 0.92388 1.0016
3 1 0
2.77164 1 1.14805
2.41809 0.92388 1.0016
1.85072 0.92388 1.85072
2.77164 1 1.14805
2.12132 1 2.12132
1.62132 0.707107 1.62132
0.877452 0.707107 2.11836
1.85072 0.92388 1.85072
1.0016 0.92388 2.41809
0.877452 0.707107 2.11836
1.40399e-16 0.707107 2.29289
1.0016 0.92388 2.41809
1.60264e-16 0.92388 2.61732
1.85072 0.92388 1.85072
1.0016 0.92388 2.41809
2.12132 1 2.12132
1.14805 1 2.77164
1.0016 0.92388 2.41809
1.60264e-16 0.92388 2.61732
1.14805 1 2.77164
0 1 3
3 -1 0
2.77164 -1 1.14805
2.61732 -0.92388 0
2.41809 -0.92388 1.0016
2.77164 -1 1.14805
2.12132 -1 2.12132
2.41809 -0.92388 1.0016
1.85072 -0.92388 1.85072
2.61732 -0.92388 0
2.41809 -0.92388 1.0016
2.29289 -0.707107 0
2.11836 -0.707107 0.877452
2.41809 -0.92388 1.0016
1.85072 -0.92388 1.85072
2.11836 -0.707107 0.877452
1.62132 -0.707107 1.62132
2.12132 -1 2.12132
1.14805 -1 2.77164
1.85072 -0.92388 1.85072
1.0016 -0.92388 2.41809
1.14805 -1 2.77164
0 -1 3
1.0016 -0.92388 2.41809
1.60264e-16 -0.92388 2.61732
1.85072 -0.92388 1.85072
1.0016 -0.92388 2.41809
1.62132 -0.707107 1.62132
0.877452 -0.707107 2.11836
1.0016 -0.92388 2.41809
1.60264e-16 -0.92388 2.61732
0.877452 -0.707107 2.11836
1.40399e-16 -0.707107 2.29289
2.29289 -0.707107 0
2.11836 -0.707107 0.877452
2.07612 -0.382683 0
1.91809 -0.382683 0.794497
2.11836 -0.707107 0.877452
1.62132 -0.707107 1.62132
1.91809 -0.382683 0.794497
1.46804 -0.382683 1.46804
2.07612 -0.382683 0
1.91809 -0.382683 0.794497
2 0 0
1.84776 1.22465e-16 0.765367
1.91809 -0.382683 0.794497
1.46804 -0.382683 1.46804
1.84776 1.22465e-16 0.765367
1.41421 1.22465e-16 1.41421
1.62132 -0.707107 1.62132
0.877452 -0.707107 2.11836
1.46804 -0.382683 1.46804
0.794497 -0.382683 1.91809
0.877452 -0.707107 2.11836
1.40399e-16 -0.707107 2.29289
0.794497 -0.382683 1.91809
1.27126e-16 -0.382683 2.07612
1.46804 -0.382683 1.46804
0.794497 -0.382683 1.91809
1.41421 1.22465e-16 1.41421
0.765367 1.22465e-16 1.84776
0.794497 -0.382683 1.91809
1.27126e-16 -0.382683 2.07612
0.765367 1.22465e-16 1.84776
0 0 2
4 0 0
3.69552 0 1.53073
3.92388 -0.382683 0
3.62519 -0.382683 1.5016
3.69552 0 1.53073
2.82843 0 2.82843
3.62519 -0.382683 1.5016
2.7746 -0.382683 2.7746
3.92388 -0.382683 0
3.62519 -0.382683 1.5016
3.70711 -0.707107 0
3.42492 -0.707107 1.41865
3.62519 -0.382683 1.5016
2.7746 -0.382683 2.7746
3.42492 -0.707107 1.41865
2.62132 -0.707107 2.62132
2.82843 0 2.82843
1.53073 0 3.69552
2.7746 -0.382683 2.7746
1.5016 -0.382683 3.62519
1.53073 0 3.69552
0 0 4
1.5016 -0.382683 3.62519
2.40268e-16 -0.382683 3.92388
2.7746 -0.382683 2.7746
1.5016 -0.382683 3.62519
2.62132 -0.707107 2.62132
1.41865 -0.707107 3.42492
1.5016 -0.382683 3.62519
2.40268e-16 -0.382683 3.92388
1.41865 -0.707107 3.42492
2.26995e-16 -0.707107 3.70711
3.70711 -0.707107 0
3.42492 -0.707107 1.41865
3.38268 -0.92388 0
3.12519 -0.92388 1.2945
3.42492 -0.707107 1.41865
2.62132 -0.707107 2.62132
3.12519 -0.92388 1.2945
2.39192 -0.92388 2.39192
3.38268 -0.92388 0
3.12519 -0.92388 1.2945
3 -1 0
2.77164 -1 1.14805
3.12519 -0.92388 1.2945
2.39192 -0.92388 2.39192
2.77164 -1 1.14805
2.12132 -1 2.12132
2.62132 -0.707107 2.62132
1.41865 -0.707107 3.42492
2.39192 -0.92388 2.39192
1.2945 -0.92388 3.12519
1.41865 -0.707107 3.42492
2.26995e-16 -0.707107 3.70711
1.2945 -0.92388 3.12519
2.0713e-16 -0.92388 3.38268
2.39192 -0.92388 2.39192
1.2945 -0.92388 3.12519
2.12132 -1 2.12132
1.14805 -1 2.77164
1.2945 -0.92388 3.12519
2.0713e-16 -0.92388 3.38268
1.14805 -1 2.77164
0 -1 3
3 1 0
2.77164 1 1.14805
3.38268 0.92388 0
3.12519 0.92388 1.2945
2.77164 1 1.14805
2.12132 1 2.12132
3.12519 0.92388 1.2945
2.39192 0.92388 2.39192
3.38268 0.92388 0
3.12519 0.92388 1.2945
3.70711 0.707107 0
3.42492 0.707107 1.41865
3.12519 0.92388 1.2945
2.39192 0.92388 2.39192
3.42492 0.707107 1.41865
2.62132 0.707107 2.62132
2.12132 1 2.12132
1.14805 1 2.77164
2.39192 0.92388 2.39192
1.2945 0.92388 3.12519
1.14805 1 2.77164
0 1 3
1.2945 0.92388 3.12519
2.0713e-16 0.92388 3.38268
2.39192 0.92388 2.39192
1.2945 0.92388 3.12519
2.62132 0.707107 2.62132
1.41865 0.707107 3.42492
1.2945 0.92388 3.12519
2.0713e-16 0.92388 3.38268
1.41865 0.707107 3.42492
2.26995e-16 0.707107 3.70711
3.70711 0.707107 0
3.42492 0.707107 1.41865
3.92388 0.382683 0
3.62519 0.382683 1.5016
3.42492 0.707107 1.41865
2.62132 0.707107 2.62132
3.62519 0.382683 1.5016
2.7746 0.382683 2.7746
3.92388 0.382683 0
3.62519 0.382683 1.5016
4 0 0
3.69552 0 1.53073
3.62519 0.382683 1.5016
2.7746 0.382683 2.7746
3.69552 0 1.53073
2.82843 0 2.82843
2.62132 0.707107 2.62132
1.41865 0.707107 3.42492
2.7746 0.382683 2.7746
1.5016 0.382683 3.62519
1.41865 0.707107 3.42492
2.26995e-16 0.707107 3.70711
1.5016 0.382683 3.62519
2.40268e-16 0.382683 3.92388
2.7746 0.382683 2.7746
1.5016 0.382683 3.62519
2.82843 0 2.82843
1.53073 0 3.69552
1.5016 0.382683 3.62519
2.40268e-16 0.382683 3.92388
1.53073 0 3.69552
0 0 4
0 0 2
-0.765367 1.22465e-16 1.84776
1.27126e-16 0.382683 2.07612
-0.794497 0.382683 1.91809
-0.765367 1.22465e-16 1.84776
-1.41421 1.22465e-16 1.41421
-0.794497 0.382683 1.91809
-1.46804 0.382683 1.46804
1.27126e-16 0.382683 2.07612
-0.794497 0.382683 1.91809
1.40399e-16 0.707107 2.29289
-0.877452 0.707107 2.11836
-0.794497 0.382683 1.91809
-1.46804 0.382683 1.46804
-0.877452 0.707107 2.11836
-1.62132 0.707107 1.62132
-1.41421 1.22465e-16 1.41421
-1.84776 1.22465e-16 0.765367
-1.46804 0.382683 1.46804
-1.91809 0.382683 0.794497
-1.84776 1.22465e-16 0.765367
-2 0 0
-1.91809 0.382683 0.794497
-2.07612 0.382683 2.54251e-16
-1.46804 0.382683 1.46804
-1.91809 0.382683 0.794497
-1.62132 0.707107 1.62132
-2.11836 0.707107 0.877452
-1.91809 0.382683 0.794497
-2.07612 0.382683 2.54251e-16
-2.11836 0.707107 0.877452
-2.29289 0.707107 2.80798e-16
1.40399e-16 0.707107 2.29289
-0.877452 0.707107 2.11836
1.60264e-16 0.92388 2.61732
-1.0016 0.92388 2.41809
-0.877452 0.707107 2.11836
-1.62132 0.707107 1.62132
-1.0016 0.92388 2.41809
-1.85072 0.92388 1.85072
1.60264e-16 0.92388 2.61732
-1.0016 0.92388 2.41809
0 1 3
-1.14805 1 2.77164
-1.0016 0.92388 2.41809
-1.85072 0.92388 1.85072
-1.14805 1 2.77164
-2.12132 1 2.12132
-1.62132 0.707107 1.62132
-2.11836 0.707107 0.877452
-1.85072 0.92388 1.85072
-2.41809 0.92388 1.0016
-2.11836 0.707107 0.877452
-2.29289 0.707107 2.80798e-16
-2.41809 0.92388 1.0016
-2.61732 0.92388 3.20529e-16
-1.85072 0.92388 1.85072
-2.41809 0.92388 1.0016
-2.12132 1 2.12132
-2.77164 1 1.14805
-2.41809 0.92388 1.0016
-2.61732 0.92388 3.20529e-16
-2.77164 1 1.14805
-3 1 0
0 -1 3
-1.14805 -1 2.77164
1.60264e-16 -0.92388 2.61732
-1.0016 -0.92388 2.41809
-1.14805 -1 2.77164
-2.12132 -1 2.12132
-1.0016 -0.92388 2.41809
-1.85072 -0.92388 1.85072
1.60264e-16 -0.92388 2.61732
-1.0016 -0.92388 2.41809
1.40399e-16 -0.707107 2.29289
-0.877452 -0.707107 2.11836
-1.0016 -0.92388 2.41809
-1.85072 -0.92388 1.85072
-0.877452 -0.707107 2.11836
-1.62132 -0.707107 1.62132
-2.12132 -1 2.12132
-2.77164 -1 1.14805
-1.85072 -0.92388 1.85072
-2.41809 -0.92388 1.0016
-2.77164 -1 1.14805
-3 -1 0
-2.41809 -0.92388 1.0016
-2.61732 -0.92388 3.20529e-16
-1.85072 -0.92388 1.85072
-2.41809 -0.92388 1.0016
-1.62132 -0.707107 1.62132
-2.11836 -0.707107 0.877452
-2.41809 -0.92388 1.0016
-2.61732 -0.92388 3.20529e-16
-2.11836 -0.707107 0.877452
-2.29289 -0.707107 2.80798e-16
1.40399e-16 -0.707107 2.29289
-0.877452 -0.707107 2.11836
1.27126e-16 -0.382683 2.07612
-0.794497 -0.382683 1.91809
-0.877452 -0.707107 2.11836
-1.62132 -0.707107 1.62132
-0.794497 -0.382683 1.91809
-1.46804 -0.382683 1.46804
1.27126e-16 -0.382683 2.07612
-0.794497 -0.382683 1.91809
0 0 2
-0.765367 1.22465e-16 1.84776
-0.794497 -0.382683 1.91809
-1.46804 -0.382683 1.46804
-0.765367 1.22465e-16 1.84776
-1.41421 1.22465e-16 1.41421
-1.62132 -0.707107 1.62132
-2.11836 -0.707107 0.877452
-1.46804 -0.382683 1.46804
-1.91809 -0.382683 0.794497
-2.11836 -0.707107 0.877452
-2.29289 -0.707107 2.80798e-16
-1.91809 -0.382683 0.794497
-2.07612 -0.382683 2.54251e-16
-1.46804 -0.382683 1.46804
-1.91809 -0.382683 0.794497
-1.41421 1.22465e-16 1.41421
-1.84776 1.22465e-16 0.765367
-1.91809 -0.382683 0.794497
-2.07612 -0.382683 2.54251e-16
-1.84776 1.22465e-16 0.765367
-2 0 0
0 0 4
-1.53073 0 3.69552
2.40268e-16 -0.382683 3.92388
-1.5016 -0.382683 3.62519
-1.53073 0 3.69552
-2.82843 0 2.82843
-1.5016 -0.382683 3.62519
-2.7746 -0.382683 2.7746
2.40268e-16 -0.382683 3.92388
-1.5016 -0.382683 3.62519
2.26995e-16 -0.707107 3.70711
-1.41865 -0.707107 3.42492
-1.5016 -0.382683 3.62519
-2.7746 -0.382683 2.7746
-1.41865 -0.707107 3.42492
-2.62132 -0.707107 2.62132
-2.82843 0 2.82843
-3.69552 0 1.53073
-2.7746 -0.382683 2.7746
-3.62519 -0.382683 1.5016
-3.69552 0 1.53073
-4 0 0
-3.62519 -0.382683 1.5016
-3.92388 -0.382683 4.80537e-16
-2.7746 -0.382683 2.7746
-3.62519 -0.382683 1.5016
-2.62132 -0.707107 2.62132
-3.42492 -0.707107 1.41865
[...]
POINT_DATA 1024
SCALARS U double 1
LOOKUP_TABLE default
0.0758415 0.0757886 0.0914958 0.0914737 0.0757886 0.0757524 0.0914737 0.0915106 0.0914958 0.0914737 0.10484 0.104837 0.0914737 0.0915106 0.104837 0.10511 0.0757524 0.0646964 0.0915106 0.0797222 0.0646964 0.0158974 0.0797222 0.0243811 0.0915106 0.0797222 0.10511 0.0945476 0.0797222 0.0243811 0.0945476 0.0329099 0.10484 0.104837 0.113781 0.113774 0.104837 0.10511 0.113774 0.114268 0.113781 0.113774 0.116336 0.116308 0.113774 0.114268 0.116308 0.116888 0.10511 0.0945476 0.114268 0.105981 0.0945476 0.0329099 0.105981 0.0385796 0.114268 0.105981 0.116888 0.111049 0.105981 0.0385796 0.111049 0.0394666 0.00601816 0.00602798 0.00872453 0.00878052 0.00602798 0.00611817 0.00878052 0.00870009 0.00872453 0.00878052 0.0240806 0.0241294 0.00878052 0.00870009 0.0241294 0.0239669 0.00611817 0.00483346 0.00870009 0.0067336 0.00483346 0.00118793 0.0067336 0.00197959 0.00870009 0.0067336 0.0239669 0.0197972 0.0067336 0.00197959 0.0197972 0.00432001 0.0240806 0.0241294 0.0527385 0.0527085 0.0241294 0.0239669 0.0527085 0.0526398 0.0527385 0.0527085 0.0758415 0.0757886 0.0527085 0.0526398 0.0757886 0.0757524 0.0239669 0.0197972 0.0526398 0.0446769 0.0197972 0.00432001 0.0446769 0.00904214 0.0526398 0.0446769 0.0757524 0.0646964 0.0446769 0.00904214 0.0646964 0.0158974 0.0761608 0.0760761 0.0553107 0.055229 0.0760761 0.0763296 0.055229 0.0554797 0.0553107 0.055229 0.0274894 0.0274034 0.055229 0.0554797 0.0274034 0.0277525 0.0763296 0.0760223 0.0554797 0.0550374 0.0760223 0.0055149 0.0550374 0.00147446 0.0554797 0.0550374 0.0277525 0.0264439 0.0550374 0.00147446 0.0264439 0.00107511 0.0274894 0.0274034 0.0104999 0.010454 0.0274034 0.0277525 0.010454 0.0107228 0.0104999 0.010454 0.00601816 0.00602798 0.010454 0.0107228 0.00602798 0.00611817 0.0277525 0.0264439 0.0107228 0.00929507 0.0264439 0.00107511 0.00929507 0.00115899 0.0107228 0.00929507 0.00611817 0.00483346 0.00929507 0.00115899 0.00483346 0.00118793 0.116336 0.116308 0.112447 0.112388 0.116308 0.116888 0.112388 0.112947 0.112447 0.112388 0.102839 0.102753 0.112388 0.112947 0.102753 0.103236 0.116888 0.111049 0.112947 0.109188 0.111049 0.0394666 0.109188 0.0349537 0.112947 0.109188 0.103236 0.101036 0.109188 0.0349537 0.101036 0.0256495 0.102839 0.102753 0.0901296 0.0900342 0.102753 0.103236 0.0900342 0.0904067 0.0901296 0.0900342 0.0761608 0.0760761 0.0900342 0.0904067 0.0760761 0.0763296 0.103236 0.101036 0.0904067 0.0893466 0.101036 0.0256495 0.0893466 0.0144178 0.0904067 0.0893466 0.0763296 0.0760223 0.0893466 0.0144178 0.0760223 0.0055149 0.0158974 0.00133185 0.0243811 0.00301873 0.00133185 -0.000112397 0.00301873 -0.000323245 0.0243811 0.00301873 0.0329099 0.00431955 0.00301873 -0.000323245 0.00431955 -0.000625764 -0.000112397 -5.42584e-05 -0.000323245 -5.05924e-05 -5.42584e-05 4.56595e-05 -5.05924e-05 6.0187e-05 -0.000323245 -5.05924e-05 -0.000625764 5.12332e-06 -5.05924e-05 6.0187e-05 5.12332e-06 4.99304e-05 0.0329099 0.00431955 0.0385796 0.00437126 0.00431955 -0.000625764 0.00437126 -0.000849968 0.0385796 0.00437126 0.0394666 0.00333624 0.00437126 -0.000849968 0.00333624 -0.000847899 -0.000625764 5.12332e-06 -0.000849968 9.85125e-05 5.12332e-06 4.99304e-05 9.85125e-05 5.02126e-06 -0.000849968 9.85125e-05 -0.000847899 0.000166202 9.85125e-05 5.02126e-06 0.000166202 -4.5648e-05 0.00118793 -9.43763e-05 0.00197959 3.15531e-05 -9.43763e-05 -2.6434e-06 3.15531e-05 -4.18212e-05 0.00197959 3.15531e-05 0.00432001 0.000124402 3.15531e-05 -4.18212e-05 0.000124402 -5.72966e-05 -2.6434e-06 3.31567e-06 -4.18212e-05 6.53013e-06 3.31567e-06 -1.72043e-06 6.53013e-06 -1.79755e-08 -4.18212e-05 6.53013e-06 -5.72966e-05 -3.79558e-06 6.53013e-06 -1.79755e-08 -3.79558e-06 9.23895e-06 0.00432001 0.000124402 0.00904214 0.000346991 0.000124402 -5.72966e-05 0.000346991 -4.40329e-05 0.00904214 0.000346991 0.0158974 0.00133185 0.000346991 -4.40329e-05 0.00133185 -0.000112397 -5.72966e-05 -3.79558e-06 -4.40329e-05 -3.16879e-05 -3.79558e-06 9.23895e-06 -3.16879e-05 2.69202e-05 -4.40329e-05 -3.16879e-05 -0.000112397 -5.42584e-05 -3.16879e-05 2.69202e-05 -5.42584e-05 4.56595e-05 0.0055149 -4.64329e-05 0.00147446 -0.000161677 -4.64329e-05 -1.45968e-05 -0.000161677 3.96835e-05 0.00147446 -0.000161677 0.00107511 -0.000283206 -0.000161677 3.96835e-05 -0.000283206 6.14646e-05 -1.45968e-05 1.26324e-05 3.96835e-05 -6.60721e-06 1.26324e-05 -9.03498e-06 -6.60721e-06 1.1559e-06 3.96835e-05 -6.60721e-06 6.14646e-05 -1.0894e-05 -6.60721e-06 1.1559e-06 -1.0894e-05 2.78054e-06 0.00107511 -0.000283206 0.00115899 -0.0002326 -0.000283206 6.14646e-05 -0.0002326 3.78259e-05 0.00115899 -0.0002326 0.00118793 -9.43763e-05 -0.0002326 3.78259e-05 -9.43763e-05 -2.6434e-06 6.14646e-05 -1.0894e-05 3.78259e-05 -4.18496e-06 -1.0894e-05 2.78054e-06 -4.18496e-06 -4.82168e-08 3.78259e-05 -4.18496e-06 -2.6434e-06 3.31567e-06 -4.18496e-06 -4.82168e-08 3.31567e-06 -1.72043e-06 0.0394666 0.00333624 0.0349537 0.00195105 0.00333624 -0.000847899 0.00195105 -0.000641297 0.0349537 0.00195105 0.0256495 0.000821787 0.00195105 -0.000641297 0.000821787 -0.000362872 -0.000847899 0.000166202 -0.000641297 0.0001677 0.000166202 -4.5648e-05 0.0001677 -6.7961e-05 -0.000641297 0.0001677 -0.000362872 0.000117015 0.0001677 -6.7961e-05 0.000117015 -5.67386e-05 0.0256495 0.000821787 0.0144178 0.000185263 0.000821787 -0.000362872 0.000185263 -0.000137388 0.0144178 0.000185263 0.0055149 -4.64329e-05 0.000185263 -0.000137388 -4.64329e-05 -1.45968e-05 -0.000362872 0.000117015 -0.000137388 5.50263e-05 0.000117015 -5.67386e-05 5.50263e-05 -3.05147e-05 -0.000137388 5.50263e-05 -1.45968e-05 1.26324e-05 5.50263e-05 -3.05147e-05 1.26324e-05 -9.03498e-06 4.56595e-05 -5.42653e-05 6.0187e-05 -5.05944e-05 -5.42653e-05 -0.000112397 -5.05944e-05 -0.000323251 6.0187e-05 -5.05944e-05 4.99304e-05 5.11601e-06 -5.05944e-05 -0.000323251 5.11601e-06 -0.00062577 -0.000112397 0.00133185 -0.000323251 0.00301873 0.00133185 0.0158974 0.00301873 0.0243811 -0.000323251 0.00301873 -0.00062577 0.00431955 0.00301873 0.0243811 0.00431955 0.03291 4.99304e-05 5.11601e-06 5.02126e-06 9.85095e-05 5.11601e-06 -0.00062577 9.85095e-05 -0.000849964 5.02126e-06 9.85095e-05 -4.5648e-05 0.000166204 9.85095e-05 -0.000849964 0.000166204 -0.000847896 -0.00062577 0.00431955 -0.000849964 0.00437126 0.00431955 0.03291 0.00437126 0.0385796 -0.000849964 0.00437126 -0.000847896 0.00333624 0.00437126 0.0385796 0.00333624 0.0394666 -1.72043e-06 3.3187e-06 -1.79755e-08 6.53522e-06 3.3187e-06 -2.64199e-06 6.53522e-06 -4.18238e-05 -1.79755e-08 6.53522e-06 9.23895e-06 -3.79779e-06 6.53522e-06 -4.18238e-05 -3.79779e-06 -5.72928e-05 -2.64199e-06 -9.43748e-05 -4.18238e-05 3.15613e-05 -9.43748e-05 0.00118793 3.15613e-05 0.00197959 -4.18238e-05 3.15613e-05 -5.72928e-05 0.000124401 3.15613e-05 0.00197959 0.000124401 0.00432 9.23895e-06 -3.79779e-06 2.69202e-05 -3.16868e-05 -3.79779e-06 -5.72928e-05 -3.16868e-05 -4.40393e-05 2.69202e-05 -3.16868e-05 4.56595e-05 -5.42653e-05 -3.16868e-05 -4.40393e-05 -5.42653e-05 -0.000112397 -5.72928e-05 0.000124401 -4.40393e-05 0.000346996 0.000124401 0.00432 0.000346996 0.00904212 -4.40393e-05 0.000346996 -0.000112397 0.00133185 0.000346996 0.00904212 0.00133185 0.0158974 -9.03498e-06 1.26306e-05 1.1559e-06 -6.60535e-06 1.26306e-05 -1.45913e-05 -6.60535e-06 3.96876e-05 1.1559e-06 -6.60535e-06 2.78054e-06 -1.08973e-05 -6.60535e-06 3.96876e-05 -1.08973e-05 6.14724e-05 -1.45913e-05 -4.64354e-05 3.96876e-05 -0.000161679 -4.64354e-05 0.00551491 -0.000161679 0.00147447 3.96876e-05 -0.000161679 6.14724e-05 -0.000283209 -0.000161679 0.00147447 -0.000283209 0.00107511 2.78054e-06 -1.08973e-05 -4.82168e-08 -4.18541e-06 -1.08973e-05 6.14724e-05 -4.18541e-06 3.78281e-05 -4.82168e-08 -4.18541e-06 -1.72043e-06 3.3187e-06 -4.18541e-06 3.78281e-05 3.3187e-06 -2.64199e-06 6.14724e-05 -0.000283209 3.78281e-05 -0.000232599 -0.000283209 0.00107511 -0.000232599 0.00115899 3.78281e-05 -0.000232599 -2.64199e-06 -9.43748e-05 -0.000232599 0.00115899 -9.43748e-05 0.00118793 -4.5648e-05 0.000166204 -6.7961e-05 0.000167703 0.000166204 -0.000847896 0.000167703 -0.000641297 -6.7961e-05 0.000167703 -5.67386e-05 0.000117016 0.000167703 -0.000641297 0.000117016 -0.000362864 -0.000847896 0.00333624 -0.000641297 0.00195104 0.00333624 0.0394666 0.00195104 0.0349537 -0.000641297 0.00195104 -0.000362864 0.000821784 0.00195104 0.0349537 0.000821784 0.0256495 -5.67386e-05 0.000117016 -3.05147e-05 5.50294e-05 0.000117016 -0.000362864 5.50294e-05 -0.000137385 -3.05147e-05 5.50294e-05 -9.03498e-06 1.26306e-05 5.50294e-05 -0.000137385 1.26306e-05 -1.45913e-05 -0.000362864 0.000821784 -0.000137385 0.00018526 0.000821784 0.0256495 0.00018526 0.0144178 -0.000137385 0.00018526 -1.45913e-05 -4.64354e-05 0.00018526 0.0144178 -4.64354e-05 0.00551491 0.0158974 0.0646963 0.0243811 0.0797222 0.0646963 0.0757524 0.0797222 0.0915106 0.0243811 0.0797222 0.03291 0.0945477 0.0797222 0.0915106 0.0945477 0.10511 0.0757524 0.0757886 0.0915106 0.0914737 0.0757886 0.0758415 0.0914737 0.0914958 0.0915106 0.0914737 0.10511 0.104837 0.0914737 0.0914958 0.104837 0.10484 0.03291 0.0945477 0.0385796 0.105981 0.0945477 0.10511 0.105981 0.114268 0.0385796 0.105981 0.0394666 0.111049 0.105981 0.114268 0.111049 0.116888 0.10511 0.104837 0.114268 0.113774 0.104837 0.10484 0.113774 0.113781 0.114268 0.113774 0.116888 0.116308 0.113774 0.113781 0.116308 0.116336 0.00118793 0.00483347 0.00197959 0.00673359 0.00483347 0.00611817 0.00673359 0.0087001 0.00197959 0.00673359 0.00432 0.0197972 0.00673359 0.0087001 0.0197972 0.0239669 0.00611817 0.00602797 0.0087001 0.0087805 0.00602797 0.00601816 0.0087805 0.00872453 0.0087001 0.0087805 0.0239669 0.0241294 0.0087805 0.00872453 0.0241294 0.0240806 0.00432 0.0197972 0.00904212 0.0446769 0.0197972 0.0239669 0.0446769 0.0526398 0.00904212 0.0446769 0.0158974 0.0646963 0.0446769 0.0526398 0.0646963 0.0757524 0.0239669 0.0241294 0.0526398 0.0527085 0.0241294 0.0240806 0.0527085 0.0527385 0.0526398 0.0527085 0.0757524 0.0757886 0.0527085 0.0527385 0.0757886 0.0758415 0.00551491 0.0760224 0.00147447 0.0550374 0.0760224 0.0763296 0.0550374 0.0554797 0.00147447 0.0550374 0.00107511 0.0264439 0.0550374 0.0554797 0.0264439 0.0277525 0.0763296 0.0760761 0.0554797 0.055229 0.0760761 0.0761608 0.055229 0.0553107 0.0554797 0.055229 0.0277525 0.0274034 0.055229 0.0553107 0.0274034 0.0274894 0.00107511 0.0264439 0.00115899 0.00929508 0.0264439 0.0277525 0.00929508 0.0107228 0.00115899 0.00929508 0.00118793 0.00483347 0.00929508 0.0107228 0.00483347 0.00611817 0.0277525 0.0274034 0.0107228 0.010454 0.0274034 0.0274894 0.010454 0.0104999 0.0107228 0.010454 0.00611817 0.00602797 0.010454 0.0104999 0.00602797 0.00601816 0.0394666 0.111049 0.0349537 0.109188 0.111049 0.116888 0.109188 0.112947 0.0349537 0.109188 0.0256495 0.101036 0.109188 0.112947 0.101036 0.103236 0.116888 0.116308 0.112947 0.112388 0.116308 0.116336 0.112388 0.112447 0.112947 0.112388 0.103236 0.102753 0.112388 0.112447 0.102753 0.102839 0.0256495 0.101036 0.0144178 0.0893466 0.101036 0.103236 0.0893466 0.0904067 0.0144178 0.0893466 0.00551491 0.0760224 0.0893466 0.0904067 0.0760224 0.0763296 0.103236 0.102753 0.0904067 0.0900342 0.102753 0.102839 0.0900342 0.0901296 0.0904067 0.0900342 0.0763296 0.0760761 0.0900342 0.0901296 0.0760761 0.0761608 
