# vtk DataFile Version 3.0
#This file was generated by the deal.II library on 2023/3/8 at 18:39:26
ASCII
DATASET UNSTRUCTURED_GRID

FIELD FieldData 2
CYCLE 1 1 int
214
TIME 1 1 double
0.428
POINTS 1024 double
2 0 0
1.84776 1.22465e-16 0.765367
2.07612 0.382683 0
1.91809 0.382683 0.794497
1.84776 1.22465e-16 0.765367
1.41421 1.22465e-16 1.41421
1.91809 0.382683 0.794497
1.46804 0.382683 1.46804
2.07612 0.382683 0
1.91809 0.382683 0.794497
2.29289 0.707107 0
2.11836 0.707107 0.877452
1.91809 0.382683 0.794497
1.46804 0.382683 1.46804
2.11836 0.707107 0.877452
1.62132 0.707107 1.62132
1.41421 1.22465e-16 1.41421
0.765367 1.22465e-16 1.84776
1.46804 0.382683 1.46804
0.794497 0.382683 1.91809
0.765367 1.22465e-16 1.84776
0 0 2
0.794497 0.382683 1.91809
1.27126e-16 0.382683 2.07612
1.46804 0.382683 1.46804
0.794497 0.382683 1.91809
1.62132 0.707107 1.62132
0.877452 0.707107 2.11836
0.794497 0.382683 1.91809
1.27126e-16 0.382683 2.07612
0.877452 0.707107 2.11836
1.40399e-16 0.707107 2.29289
2.29289 0.707107 0
2.11836 0.707107 0.877452
2.61732 0.92388 0
2.41809 0.92388 1.0016
2.11836 0.707107 0.877452
1.62132 0.707107 1.62132
2.41809 0.92388 1.0016
1.85072 0.92388 1.85072
2.61732 0.92388 0
2.41809 0.92388 1.0016
3 1 0
2.77164 1 1.14805
2.41809 0.92388 1.0016
1.85072 0.92388 1.85072
2.77164 1 1.14805
2.12132 1 2.12132
1.62132 0.707107 1.62132
0.877452 0.707107 2.11836
1.85072 0.92388 1.85072
1.0016 0.92388 2.41809
0.877452 0.707107 2.11836
1.40399e-16 0.707107 2.29289
1.0016 0.92388 2.41809
1.60264e-16 0.92388 2.61732
1.85072 0.92388 1.85072
1.0016 0.92388 2.41809
2.12132 1 2.12132
1.14805 1 2.77164
1.0016 0.92388 2.41809
1.60264e-16 0.92388 2.61732
1.14805 1 2.77164
0 1 3
3 -1 0
2.77164 -1 1.14805
2.61732 -0.92388 0
2.41809 -0.92388 1.0016
2.77164 -1 1.14805
2.12132 -1 2.12132
2.41809 -0.92388 1.0016
1.85072 -0.92388 1.85072
2.61732 -0.92388 0
2.41809 -0.92388 1.0016
2.29289 -0.707107 0
2.11836 -0.707107 0.877452
2.41809 -0.92388 1.0016
1.85072 -0.92388 1.85072
2.11836 -0.707107 0.877452
1.62132 -0.707107 1.62132
2.12132 -1 2.12132
1.14805 -1 2.77164
1.85072 -0.92388 1.85072
1.0016 -0.92388 2.41809
1.14805 -1 2.77164
0 -1 3
1.0016 -0.92388 2.41809
1.60264e-16 -0.92388 2.61732
1.85072 -0.92388 1.85072
1.0016 -0.92388 2.41809
1.62132 -0.707107 1.62132
0.877452 -0.707107 2.11836
1.0016 -0.92388 2.41809
1.60264e-16 -0.92388 2.61732
0.877452 -0.707107 2.11836
1.40399e-16 -0.707107 2.29289
2.29289 -0.707107 0
2.11836 -0.707107 0.877452
2.07612 -0.382683 0
1.91809 -0.382683 0.794497
2.11836 -0.707107 0.877452
1.62132 -0.707107 1.62132
1.91809 -0.382683 0.794497
1.46804 -0.382683 1.46804
2.07612 -0.382683 0
1.91809 -0.382683 0.794497
2 0 0
1.84776 1.22465e-16 0.765367
1.91809 -0.382683 0.794497
1.46804 -0.382683 1.46804
1.84776 1.22465e-16 0.765367
1.41421 1.22465e-16 1.41421
1.62132 -0.707107 1.62132
0.877452 -0.707107 2.11836
1.46804 -0.382683 1.46804
0.794497 -0.382683 1.91809
0.877452 -0.707107 2.11836
1.40399e-16 -0.707107 2.29289
0.794497 -0.382683 1.91809
1.27126e-16 -0.382683 2.07612
1.46804 -0.382683 1.46804
0.794497 -0.382683 1.91809
1.41421 1.22465e-16 1.41421
0.765367 1.22465e-16 1.84776
0.794497 -0.382683 1.91809
1.27126e-16 -0.382683 2.07612
0.765367 1.22465e-16 1.84776
0 0 2
4 0 0
3.69552 0 1.53073
3.92388 -0.382683 0
3.62519 -0.382683 1.5016
3.69552 0 1.53073
2.82843 0 2.82843
3.62519 -0.382683 1.5016
2.7746 -0.382683 2.7746
3.92388 -0.382683 0
3.62519 -0.382683 1.5016
3.70711 -0.707107 0
3.42492 -0.707107 1.41865
3.62519 -0.382683 1.5016
2.7746 -0.382683 2.7746
3.42492 -0.707107 1.41865
2.62132 -0.707107 2.62132
2.82843 0 2.82843
1.53073 0 3.69552
2.7746 -0.382683 2.7746
1.5016 -0.382683 3.62519
1.53073 0 3.69552
0 0 4
1.5016 -0.382683 3.62519
2.40268e-16 -0.382683 3.92388
2.7746 -0.382683 2.7746
1.5016 -0.382683 3.62519
2.62132 -0.707107 2.62132
1.41865 -0.707107 3.42492
1.5016 -0.382683 3.62519
2.40268e-16 -0.382683 3.92388
1.41865 -0.707107 3.42492
2.26995e-16 -0.707107 3.70711
3.70711 -0.707107 0
3.42492 -0.707107 1.41865
3.38268 -0.92388 0
3.12519 -0.92388 1.2945
3.42492 -0.707107 1.41865
2.62132 -0.707107 2.62132
3.12519 -0.92388 1.2945
2.39192 -0.92388 2.39192
3.38268 -0.92388 0
3.12519 -0.92388 1.2945
3 -1 0
2.77164 -1 1.14805
3.12519 -0.92388 1.2945
2.39192 -0.92388 2.39192
2.77164 -1 1.14805
2.12132 -1 2.12132
2.62132 -0.707107 2.62132
1.41865 -0.707107 3.42492
2.39192 -0.92388 2.39192
1.2945 -0.92388 3.12519
1.41865 -0.707107 3.42492
2.26995e-16 -0.707107 3.70711
1.2945 -0.92388 3.12519
2.0713e-16 -0.92388 3.38268
2.39192 -0.92388 2.39192
1.2945 -0.92388 3.12519
2.12132 -1 2.12132
1.14805 -1 2.77164
1.2945 -0.92388 3.12519
2.0713e-16 -0.92388 3.38268
1.14805 -1 2.77164
0 -1 3
3 1 0
2.77164 1 1.14805
3.38268 0.92388 0
3.12519 0.92388 1.2945
2.77164 1 1.14805
2.12132 1 2.12132
3.12519 0.92388 1.2945
2.39192 0.92388 2.39192
3.38268 0.92388 0
3.12519 0.92388 1.2945
3.70711 0.707107 0
3.42492 0.707107 1.41865
3.12519 0.92388 1.2945
2.39192 0.92388 2.39192
3.42492 0.707107 1.41865
2.62132 0.707107 2.62132
2.12132 1 2.12132
1.14805 1 2.77164
2.39192 0.92388 2.39192
1.2945 0.92388 3.12519
1.14805 1 2.77164
0 1 3
1.2945 0.92388 3.12519
2.0713e-16 0.92388 3.38268
2.39192 0.92388 2.39192
1.2945 0.92388 3.12519
2.62132 0.707107 2.62132
1.41865 0.707107 3.42492
1.2945 0.92388 3.12519
2.0713e-16 0.92388 3.38268
1.41865 0.707107 3.42492
2.26995e-16 0.707107 3.70711
3.70711 0.707107 0
3.42492 0.707107 1.41865
3.92388 0.382683 0
3.62519 0.382683 1.5016
3.42492 0.707107 1.41865
2.62132 0.707107 2.62132
3.62519 0.382683 1.5016
2.7746 0.382683 2.7746
3.92388 0.382683 0
3.62519 0.382683 1.5016
4 0 0
3.69552 0 1.53073
3.62519 0.382683 1.5016
2.7746 0.382683 2.7746
3.69552 0 1.53073
2.82843 0 2.82843
2.62132 0.707107 2.62132
1.41865 0.707107 3.42492
2.7746 0.382683 2.7746
1.5016 0.382683 3.62519
1.41865 0.707107 3.42492
2.26995e-16 0.707107 3.70711
1.5016 0.382683 3.62519
2.40268e-16 0.382683 3.92388
2.7746 0.382683 2.7746
1.5016 0.382683 3.62519
2.82843 0 2.82843
1.53073 0 3.69552
1.5016 0.382683 3.62519
2.40268e-16 0.382683 3.92388
1.53073 0 3.69552
0 0 4
0 0 2
-0.765367 1.22465e-16 1.84776
1.27126e-16 0.382683 2.07612
-0.794497 0.382683 1.91809
-0.765367 1.22465e-16 1.84776
-1.41421 1.22465e-16 1.41421
-0.794497 0.382683 1.91809
-1.46804 0.382683 1.46804
1.27126e-16 0.382683 2.07612
-0.794497 0.382683 1.91809
1.40399e-16 0.707107 2.29289
-0.877452 0.707107 2.11836
-0.794497 0.382683 1.91809
-1.46804 0.382683 1.46804
-0.877452 0.707107 2.11836
-1.62132 0.707107 1.62132
-1.41421 1.22465e-16 1.41421
-1.84776 1.22465e-16 0.765367
-1.46804 0.382683 1.46804
-1.91809 0.382683 0.794497
-1.84776 1.22465e-16 0.765367
-2 0 0
-1.91809 0.382683 0.794497
-2.07612 0.382683 2.54251e-16
-1.46804 0.382683 1.46804
-1.91809 0.382683 0.794497
-1.62132 0.707107 1.62132
-2.11836 0.707107 0.877452
-1.91809 0.382683 0.794497
-2.07612 0.382683 2.54251e-16
-2.11836 0.707107 0.877452
-2.29289 0.707107 2.80798e-16
1.40399e-16 0.707107 2.29289
-0.877452 0.707107 2.11836
1.60264e-16 0.92388 2.61732
-1.0016 0.92388 2.41809
-0.877452 0.707107 2.11836
-1.62132 0.707107 1.62132
-1.0016 0.92388 2.41809
-1.85072 0.92388 1.85072
1.60264e-16 0.92388 2.61732
-1.0016 0.92388 2.41809
0 1 3
-1.14805 1 2.77164
-1.0016 0.92388 2.41809
-1.85072 0.92388 1.85072
-1.14805 1 2.77164
-2.12132 1 2.12132
-1.62132 0.707107 1.62132
-2.11836 0.707107 0.877452
-1.85072 0.92388 1.85072
-2.41809 0.92388 1.0016
-2.11836 0.707107 0.877452
-2.29289 0.707107 2.80798e-16
-2.41809 0.92388 1.0016
-2.61732 0.92388 3.20529e-16
-1.85072 0.92388 1.85072
-2.41809 0.92388 1.0016
-2.12132 1 2.12132
-2.77164 1 1.14805
-2.41809 0.92388 1.0016
-2.61732 0.92388 3.20529e-16
-2.77164 1 1.14805
-3 1 0
0 -1 3
-1.14805 -1 2.77164
1.60264e-16 -0.92388 2.61732
-1.0016 -0.92388 2.41809
-1.14805 -1 2.77164
-2.12132 -1 2.12132
-1.0016 -0.92388 2.41809
-1.85072 -0.92388 1.85072
1.60264e-16 -0.92388 2.61732
-1.0016 -0.92388 2.41809
1.40399e-16 -0.707107 2.29289
-0.877452 -0.707107 2.11836
-1.0016 -0.92388 2.41809
-1.85072 -0.92388 1.85072
-0.877452 -0.707107 2.11836
-1.62132 -0.707107 1.62132
-2.12132 -1 2.12132
-2.77164 -1 1.14805
-1.85072 -0.92388 1.85072
-2.41809 -0.92388 1.0016
-2.77164 -1 1.14805
-3 -1 0
-2.41809 -0.92388 1.0016
-2.61732 -0.92388 3.20529e-16
-1.85072 -0.92388 1.85072
-2.41809 -0.92388 1.0016
-1.62132 -0.707107 1.62132
-2.11836 -0.707107 0.877452
-2.41809 -0.92388 1.0016
-2.61732 -0.92388 3.20529e-16
-2.11836 -0.707107 0.877452
-2.29289 -0.707107 2.80798e-16
1.40399e-16 -0.707107 2.29289
-0.877452 -0.707107 2.11836
1.27126e-16 -0.382683 2.07612
-0.794497 -0.382683 1.91809
-0.877452 -0.707107 2.11836
-1.62132 -0.707107 1.62132
-0.794497 -0.382683 1.91809
-1.46804 -0.382683 1.46804
1.27126e-16 -0.382683 2.07612
-0.794497 -0.382683 1.91809
0 0 2
-0.765367 1.22465e-16 1.84776
-0.794497 -0.382683 1.91809
-1.46804 -0.382683 1.46804
-0.765367 1.22465e-16 1.84776
-1.41421 1.22465e-16 1.41421
-1.62132 -0.707107 1.62132
-2.11836 -0.707107 0.877452
-1.46804 -0.382683 1.46804
-1.91809 -0.382683 0.794497
-2.11836 -0.707107 0.877452
-2.29289 -0.707107 2.80798e-16
-1.91809 -0.382683 0.794497
-2.07612 -0.382683 2.54251e-16
-1.46804 -0.382683 1.46804
-1.91809 -0.382683 0.794497
-1.41421 1.22465e-16 1.41421
-1.84776 1.22465e-16 0.765367
-1.91809 -0.382683 0.794497
-2.07612 -0.382683 2.54251e-16
-1.84776 1.22465e-16 0.765367
-2 0 0
0 0 4
-1.53073 0 3.69552
2.40268e-16 -0.382683 3.92388
-1.5016 -0.382683 3.62519
-1.53073 0 3.69552
-2.82843 0 2.82843
-1.5016 -0.382683 3.62519
-2.7746 -0.382683 2.7746
2.40268e-16 -0.382683 3.92388
-1.5016 -0.382683 3.62519
2.26995e-16 -0.707107 3.70711
-1.41865 -0.707107 3.42492
-1.5016 -0.382683 3.62519
-2.7746 -0.382683 2.7746
-1.41865 -0.707107 3.42492
-2.62132 -0.707107 2.62132
-2.82843 0 2.82843
-3.69552 0 1.53073
-2.7746 -0.382683 2.7746
-3.62519 -0.382683 1.5016
-3.69552 0 1.53073
-4 0 0
-3.62519 -0.382683 1.5016
-3.92388 -0.382683 4.80537e-16
-2.7746 -0.382683 2.7746
-3.62519 -0.382683 1.5016
-2.62132 -0.707107 2.62132
-3.42492 -0.707107 1.41865
[...]
POINT_DATA 1024
SCALARS U double 1
LOOKUP_TABLE default
0.103897 0.104129 0.131462 0.131806 0.104129 0.101078 0.131806 0.128773 0.131462 0.131806 0.157478 0.157951 0.131806 0.128773 0.157951 0.155571 0.101078 0.0879567 0.128773 0.113454 0.0879567 0.0260099 0.113454 0.0424939 0.128773 0.113454 0.155571 0.140289 0.113454 0.0424939 0.140289 0.060029 0.157478 0.157951 0.173725 0.17425 0.157951 0.155571 0.17425 0.172815 0.173725 0.17425 0.177975 0.178437 0.17425 0.172815 0.178437 0.177882 0.155571 0.140289 0.172815 0.159068 0.140289 0.060029 0.159068 0.0717568 0.172815 0.159068 0.177882 0.166282 0.159068 0.0717568 0.166282 0.0745019 0.0162912 0.0163318 0.0187997 0.0188674 0.0163318 0.016272 0.0188674 0.0183398 0.0187997 0.0188674 0.0328399 0.0329219 0.0188674 0.0183398 0.0329219 0.031723 0.016272 0.0128359 0.0183398 0.0137901 0.0128359 0.00356188 0.0137901 0.00523754 0.0183398 0.0137901 0.031723 0.0244029 0.0137901 0.00523754 0.0244029 0.00930255 0.0328399 0.0329219 0.0770624 0.0772725 0.0329219 0.031723 0.0772725 0.0747799 0.0770624 0.0772725 0.103897 0.104129 0.0772725 0.0747799 0.104129 0.101078 0.031723 0.0244029 0.0747799 0.0656467 0.0244029 0.00930255 0.0656467 0.0145545 0.0747799 0.0656467 0.101078 0.0879567 0.0656467 0.0145545 0.0879567 0.0260099 0.10424 0.104339 0.0807447 0.0808724 0.104339 0.10474 0.0808724 0.0810569 0.0807447 0.0808724 0.0377378 0.0376537 0.0808724 0.0810569 0.0376537 0.0383932 0.10474 0.100617 0.0810569 0.0782178 0.100617 0.0153376 0.0782178 0.00662802 0.0810569 0.0782178 0.0383932 0.0334263 0.0782178 0.00662802 0.0334263 0.00557976 0.0377378 0.0376537 0.0219016 0.0218841 0.0376537 0.0383932 0.0218841 0.0222568 0.0219016 0.0218841 0.0162912 0.0163318 0.0218841 0.0222568 0.0163318 0.016272 0.0383932 0.0334263 0.0222568 0.0183173 0.0334263 0.00557976 0.0183173 0.00395061 0.0222568 0.0183173 0.016272 0.0128359 0.0183173 0.00395061 0.0128359 0.00356188 0.177975 0.178437 0.170982 0.171314 0.178437 0.177882 0.171314 0.171386 0.170982 0.171314 0.153253 0.153452 0.171314 0.171386 0.153452 0.153875 0.177882 0.166282 0.171386 0.161971 0.166282 0.0745019 0.161971 0.067854 0.171386 0.161971 0.153875 0.146419 0.161971 0.067854 0.146419 0.0520339 0.153253 0.153452 0.128516 0.128628 0.153452 0.153875 0.128628 0.129155 0.128516 0.128628 0.10424 0.104339 0.128628 0.129155 0.104339 0.10474 0.153875 0.146419 0.129155 0.123401 0.146419 0.0520339 0.123401 0.0317696 0.129155 0.123401 0.10474 0.100617 0.123401 0.0317696 0.100617 0.0153376 0.0260099 0.00639336 0.0424939 0.0097777 0.00639336 6.03078e-06 0.0097777 -0.00022515 0.0424939 0.0097777 0.060029 0.0120163 0.0097777 -0.00022515 0.0120163 -0.000745907 6.03078e-06 -7.78551e-05 -0.00022515 -8.53632e-05 -7.78551e-05 1.0489e-05 -8.53632e-05 2.13321e-05 -0.00022515 -8.53632e-05 -0.000745907 -2.04023e-05 -8.53632e-05 2.13321e-05 -2.04023e-05 1.68522e-05 0.060029 0.0120163 0.0717568 0.0116538 0.0120163 -0.000745907 0.0116538 -0.00121234 0.0717568 0.0116538 0.0745019 0.00918849 0.0116538 -0.00121234 0.00918849 -0.00134474 -0.000745907 -2.04023e-05 -0.00121234 9.43569e-05 -2.04023e-05 1.68522e-05 9.43569e-05 -1.48876e-05 -0.00121234 9.43569e-05 -0.00134474 0.000186997 9.43569e-05 -1.48876e-05 0.000186997 -5.4187e-05 0.00356188 5.23525e-05 0.00523754 0.000563604 5.23525e-05 -3.12497e-05 0.000563604 -5.57126e-05 0.00523754 0.000563604 0.00930255 0.00152531 0.000563604 -5.57126e-05 0.00152531 -4.09265e-05 -3.12497e-05 4.4449e-06 -5.57126e-05 -3.08299e-06 4.4449e-06 -1.57838e-06 -3.08299e-06 1.68373e-06 -5.57126e-05 -3.08299e-06 -4.09265e-05 -2.11302e-05 -3.08299e-06 1.68373e-06 -2.11302e-05 4.87815e-06 0.00930255 0.00152531 0.0145545 0.00364783 0.00152531 -4.09265e-05 0.00364783 -4.56566e-05 0.0145545 0.00364783 0.0260099 0.00639336 0.00364783 -4.56566e-05 0.00639336 6.03078e-06 -4.09265e-05 -2.11302e-05 -4.56566e-05 -3.59037e-05 -2.11302e-05 4.87815e-06 -3.59037e-05 1.32954e-06 -4.56566e-05 -3.59037e-05 6.03078e-06 -7.78551e-05 -3.59037e-05 1.32954e-06 -7.78551e-05 1.0489e-05 0.0153376 0.000711442 0.00662802 0.000287391 0.000711442 -0.000257297 0.000287391 -0.000152937 0.00662802 0.000287391 0.00557976 -0.000462269 0.000287391 -0.000152937 -0.000462269 4.03133e-05 -0.000257297 7.75806e-05 -0.000152937 5.53545e-05 7.75806e-05 -3.72797e-05 5.53545e-05 -2.94316e-05 -0.000152937 5.53545e-05 4.03133e-05 3.16413e-06 5.53545e-05 -2.94316e-05 3.16413e-06 -4.76726e-06 0.00557976 -0.000462269 0.00395061 -0.000294797 -0.000462269 4.03133e-05 -0.000294797 1.30959e-05 0.00395061 -0.000294797 0.00356188 5.23525e-05 -0.000294797 1.30959e-05 5.23525e-05 -3.12497e-05 4.03133e-05 3.16413e-06 1.30959e-05 4.27855e-06 3.16413e-06 -4.76726e-06 4.27855e-06 -3.63013e-06 1.30959e-05 4.27855e-06 -3.12497e-05 4.4449e-06 4.27855e-06 -3.63013e-06 4.4449e-06 -1.57838e-06 0.0745019 0.00918849 0.067854 0.00605405 0.00918849 -0.00134474 0.00605405 -0.00115144 0.067854 0.00605405 0.0520339 0.00337324 0.00605405 -0.00115144 0.00337324 -0.000799467 -0.00134474 0.000186997 -0.00115144 0.000213555 0.000186997 -5.4187e-05 0.000213555 -7.59261e-05 -0.00115144 0.000213555 -0.000799467 0.000179111 0.000213555 -7.59261e-05 0.000179111 -7.17512e-05 0.0520339 0.00337324 0.0317696 0.00162135 0.00337324 -0.000799467 0.00162135 -0.00046843 0.0317696 0.00162135 0.0153376 0.000711442 0.00162135 -0.00046843 0.000711442 -0.000257297 -0.000799467 0.000179111 -0.00046843 0.000121259 0.000179111 -7.17512e-05 0.000121259 -5.2985e-05 -0.00046843 0.000121259 -0.000257297 7.75806e-05 0.000121259 -5.2985e-05 7.75806e-05 -3.72797e-05 1.0489e-05 -7.78563e-05 2.13321e-05 -8.53648e-05 -7.78563e-05 6.02113e-06 -8.53648e-05 -0.000225162 2.13321e-05 -8.53648e-05 1.68522e-05 -2.04076e-05 -8.53648e-05 -0.000225162 -2.04076e-05 -0.00074592 6.02113e-06 0.00639336 -0.000225162 0.00977769 0.00639336 0.0260099 0.00977769 0.0424939 -0.000225162 0.00977769 -0.00074592 0.0120163 0.00977769 0.0424939 0.0120163 0.060029 1.68522e-05 -2.04076e-05 -1.48876e-05 9.4356e-05 -2.04076e-05 -0.00074592 9.4356e-05 -0.00121234 -1.48876e-05 9.4356e-05 -5.4187e-05 0.000187003 9.4356e-05 -0.00121234 0.000187003 -0.00134474 -0.00074592 0.0120163 -0.00121234 0.0116538 0.0120163 0.060029 0.0116538 0.0717568 -0.00121234 0.0116538 -0.00134474 0.00918849 0.0116538 0.0717568 0.00918849 0.0745019 -1.57838e-06 4.44662e-06 1.68373e-06 -3.07975e-06 4.44662e-06 -3.12473e-05 -3.07975e-06 -5.57135e-05 1.68373e-06 -3.07975e-06 4.87815e-06 -2.11305e-05 -3.07975e-06 -5.57135e-05 -2.11305e-05 -4.0922e-05 -3.12473e-05 5.23564e-05 -5.57135e-05 0.000563615 5.23564e-05 0.00356188 0.000563615 0.00523754 -5.57135e-05 0.000563615 -4.0922e-05 0.00152531 0.000563615 0.00523754 0.00152531 0.00930255 4.87815e-06 -2.11305e-05 1.32954e-06 -3.59031e-05 -2.11305e-05 -4.0922e-05 -3.59031e-05 -4.56593e-05 1.32954e-06 -3.59031e-05 1.0489e-05 -7.78563e-05 -3.59031e-05 -4.56593e-05 -7.78563e-05 6.02113e-06 -4.0922e-05 0.00152531 -4.56593e-05 0.00364783 0.00152531 0.00930255 0.00364783 0.0145545 -4.56593e-05 0.00364783 6.02113e-06 0.00639336 0.00364783 0.0145545 0.00639336 0.0260099 -3.72797e-05 7.75816e-05 -2.94316e-05 5.53571e-05 7.75816e-05 -0.000257294 5.53571e-05 -0.000152939 -2.94316e-05 5.53571e-05 -4.76726e-06 3.16372e-06 5.53571e-05 -0.000152939 3.16372e-06 4.03186e-05 -0.000257294 0.000711439 -0.000152939 0.000287384 0.000711439 0.0153376 0.000287384 0.00662804 -0.000152939 0.000287384 4.03186e-05 -0.000462276 0.000287384 0.00662804 -0.000462276 0.00557976 -4.76726e-06 3.16372e-06 -3.63013e-06 4.27916e-06 3.16372e-06 4.03186e-05 4.27916e-06 1.30961e-05 -3.63013e-06 4.27916e-06 -1.57838e-06 4.44662e-06 4.27916e-06 1.30961e-05 4.44662e-06 -3.12473e-05 4.03186e-05 -0.000462276 1.30961e-05 -0.000294797 -0.000462276 0.00557976 -0.000294797 0.00395061 1.30961e-05 -0.000294797 -3.12473e-05 5.23564e-05 -0.000294797 0.00395061 5.23564e-05 0.00356188 -5.4187e-05 0.000187003 -7.59261e-05 0.000213559 0.000187003 -0.00134474 0.000213559 -0.00115143 -7.59261e-05 0.000213559 -7.17512e-05 0.000179112 0.000213559 -0.00115143 0.000179112 -0.000799454 -0.00134474 0.00918849 -0.00115143 0.00605405 0.00918849 0.0745019 0.00605405 0.067854 -0.00115143 0.00605405 -0.000799454 0.00337324 0.00605405 0.067854 0.00337324 0.0520339 -7.17512e-05 0.000179112 -5.2985e-05 0.000121261 0.000179112 -0.000799454 0.000121261 -0.000468424 -5.2985e-05 0.000121261 -3.72797e-05 7.75816e-05 0.000121261 -0.000468424 7.75816e-05 -0.000257294 -0.000799454 0.00337324 -0.000468424 0.00162135 0.00337324 0.0520339 0.00162135 0.0317696 -0.000468424 0.00162135 -0.000257294 0.000711439 0.00162135 0.0317696 0.000711439 0.0153376 0.0260099 0.0879567 0.0424939 0.113454 0.0879567 0.101078 0.113454 0.128773 0.0424939 0.113454 0.060029 0.140289 0.113454 0.128773 0.140289 0.155571 0.101078 0.104129 0.128773 0.131806 0.104129 0.103897 0.131806 0.131462 0.128773 0.131806 0.155571 0.157951 0.131806 0.131462 0.157951 0.157478 0.060029 0.140289 0.0717568 0.159068 0.140289 0.155571 0.159068 0.172815 0.0717568 0.159068 0.0745019 0.166282 0.159068 0.172815 0.166282 0.177882 0.155571 0.157951 0.172815 0.17425 0.157951 0.157478 0.17425 0.173725 0.172815 0.17425 0.177882 0.178437 0.17425 0.173725 0.178437 0.177975 0.00356188 0.0128359 0.00523754 0.0137901 0.0128359 0.016272 0.0137901 0.0183398 0.00523754 0.0137901 0.00930255 0.0244029 0.0137901 0.0183398 0.0244029 0.031723 0.016272 0.0163318 0.0183398 0.0188674 0.0163318 0.0162912 0.0188674 0.0187997 0.0183398 0.0188674 0.031723 0.0329219 0.0188674 0.0187997 0.0329219 0.0328399 0.00930255 0.0244029 0.0145545 0.0656467 0.0244029 0.031723 0.0656467 0.0747799 0.0145545 0.0656467 0.0260099 0.0879567 0.0656467 0.0747799 0.0879567 0.101078 0.031723 0.0329219 0.0747799 0.0772725 0.0329219 0.0328399 0.0772725 0.0770624 0.0747799 0.0772725 0.101078 0.104129 0.0772725 0.0770624 0.104129 0.103897 0.0153376 0.100617 0.00662804 0.0782178 0.100617 0.10474 0.0782178 0.0810569 0.00662804 0.0782178 0.00557976 0.0334263 0.0782178 0.0810569 0.0334263 0.0383932 0.10474 0.104339 0.0810569 0.0808724 0.104339 0.10424 0.0808724 0.0807447 0.0810569 0.0808724 0.0383932 0.0376537 0.0808724 0.0807447 0.0376537 0.0377378 0.00557976 0.0334263 0.00395061 0.0183173 0.0334263 0.0383932 0.0183173 0.0222568 0.00395061 0.0183173 0.00356188 0.0128359 0.0183173 0.0222568 0.0128359 0.016272 0.0383932 0.0376537 0.0222568 0.0218841 0.0376537 0.0377378 0.0218841 0.0219016 0.0222568 0.0218841 0.016272 0.0163318 0.0218841 0.0219016 0.0163318 0.0162912 0.0745019 0.166282 0.067854 0.161971 0.166282 0.177882 0.161971 0.171386 0.067854 0.161971 0.0520339 0.146419 0.161971 0.171386 0.146419 0.153875 0.177882 0.178437 0.171386 0.171314 0.178437 0.177975 0.171314 0.170982 0.171386 0.171314 0.153875 0.153452 0.171314 0.170982 0.153452 0.153253 0.0520339 0.146419 0.0317696 0.123401 0.146419 0.153875 0.123401 0.129155 0.0317696 0.123401 0.0153376 0.100617 0.123401 0.129155 0.100617 0.10474 0.153875 0.153452 0.129155 0.128628 0.153452 0.153253 0.128628 0.128516 0.129155 0.128628 0.10474 0.104339 0.128628 0.128516 0.104339 0.10424 
