# vtk DataFile Version 3.0
#This file was generated by the deal.II library on 2023/3/9 at 5:31:13
ASCII
DATASET UNSTRUCTURED_GRID

FIELD FieldData 2
CYCLE 1 1 int
49
TIME 1 1 double
0.098
POINTS 16384 double
2 0 0
1.99037 1.22465e-16 0.196034
2.00482 0.0980171 0
1.99516 0.0980171 0.196506
1.99037 1.22465e-16 0.196034
1.96157 1.22465e-16 0.390181
1.99516 0.0980171 0.196506
1.96629 0.0980171 0.39112
2.00482 0.0980171 0
1.99516 0.0980171 0.196506
2.01921 0.19509 0
2.00949 0.19509 0.197918
1.99516 0.0980171 0.196506
1.96629 0.0980171 0.39112
2.00949 0.19509 0.197918
1.98042 0.19509 0.393929
1.96157 1.22465e-16 0.390181
1.91388 1.22465e-16 0.580569
1.96629 0.0980171 0.39112
1.91849 0.0980171 0.581967
1.91388 1.22465e-16 0.580569
1.84776 1.22465e-16 0.765367
1.91849 0.0980171 0.581967
1.85221 0.0980171 0.76721
1.96629 0.0980171 0.39112
1.91849 0.0980171 0.581967
1.98042 0.19509 0.393929
1.93227 0.19509 0.586147
1.91849 0.0980171 0.581967
1.85221 0.0980171 0.76721
1.93227 0.19509 0.586147
1.86551 0.19509 0.77272
2.01921 0.19509 0
2.00949 0.19509 0.197918
2.04306 0.290285 0
2.03322 0.290285 0.200255
2.00949 0.19509 0.197918
1.98042 0.19509 0.393929
2.03322 0.290285 0.200255
2.0038 0.290285 0.398581
2.04306 0.290285 0
2.03322 0.290285 0.200255
2.07612 0.382683 0
2.06612 0.382683 0.203495
2.03322 0.290285 0.200255
2.0038 0.290285 0.398581
2.06612 0.382683 0.203495
2.03623 0.382683 0.405031
1.98042 0.19509 0.393929
1.93227 0.19509 0.586147
2.0038 0.290285 0.398581
1.95509 0.290285 0.593069
1.93227 0.19509 0.586147
1.86551 0.19509 0.77272
1.95509 0.290285 0.593069
1.88754 0.290285 0.781845
2.0038 0.290285 0.398581
1.95509 0.290285 0.593069
2.03623 0.382683 0.405031
1.98672 0.382683 0.602666
1.95509 0.290285 0.593069
1.88754 0.290285 0.781845
1.98672 0.382683 0.602666
1.91809 0.382683 0.794497
1.84776 1.22465e-16 0.765367
1.76384 1.22465e-16 0.942793
1.85221 0.0980171 0.76721
1.76809 0.0980171 0.945063
1.76384 1.22465e-16 0.942793
1.66294 1.22465e-16 1.11114
1.76809 0.0980171 0.945063
1.66694 0.0980171 1.11382
1.85221 0.0980171 0.76721
1.76809 0.0980171 0.945063
1.86551 0.19509 0.77272
1.78079 0.19509 0.951851
1.76809 0.0980171 0.945063
1.66694 0.0980171 1.11382
1.78079 0.19509 0.951851
1.67892 0.19509 1.12182
1.66294 1.22465e-16 1.11114
1.54602 1.22465e-16 1.26879
1.66694 0.0980171 1.11382
1.54974 0.0980171 1.27184
1.54602 1.22465e-16 1.26879
1.41421 1.22465e-16 1.41421
1.54974 0.0980171 1.27184
1.41762 0.0980171 1.41762
1.66694 0.0980171 1.11382
1.54974 0.0980171 1.27184
1.67892 0.19509 1.12182
1.56087 0.19509 1.28098
1.54974 0.0980171 1.27184
1.41762 0.0980171 1.41762
1.56087 0.19509 1.28098
1.4278 0.19509 1.4278
1.86551 0.19509 0.77272
1.78079 0.19509 0.951851
1.88754 0.290285 0.781845
1.80182 0.290285 0.963092
1.78079 0.19509 0.951851
1.67892 0.19509 1.12182
1.80182 0.290285 0.963092
1.69874 0.290285 1.13506
1.88754 0.290285 0.781845
1.80182 0.290285 0.963092
1.91809 0.382683 0.794497
1.83097 0.382683 0.978676
1.80182 0.290285 0.963092
1.69874 0.290285 1.13506
1.83097 0.382683 0.978676
1.72623 0.382683 1.15343
1.67892 0.19509 1.12182
1.56087 0.19509 1.28098
1.69874 0.290285 1.13506
1.57931 0.290285 1.2961
1.56087 0.19509 1.28098
1.4278 0.19509 1.4278
1.57931 0.290285 1.2961
1.44466 0.290285 1.44466
1.69874 0.290285 1.13506
1.57931 0.290285 1.2961
1.72623 0.382683 1.15343
1.60486 0.382683 1.31708
1.57931 0.290285 1.2961
1.44466 0.290285 1.44466
1.60486 0.382683 1.31708
1.46804 0.382683 1.46804
2.07612 0.382683 0
2.06612 0.382683 0.203495
2.11808 0.471397 0
2.10788 0.471397 0.207608
2.06612 0.382683 0.203495
2.03623 0.382683 0.405031
2.10788 0.471397 0.207608
2.07738 0.471397 0.413217
2.11808 0.471397 0
2.10788 0.471397 0.207608
2.16853 0.55557 0
2.15809 0.55557 0.212553
2.10788 0.471397 0.207608
2.07738 0.471397 0.413217
2.15809 0.55557 0.212553
2.12686 0.55557 0.423059
2.03623 0.382683 0.405031
1.98672 0.382683 0.602666
2.07738 0.471397 0.413217
2.02687 0.471397 0.614846
1.98672 0.382683 0.602666
1.91809 0.382683 0.794497
2.02687 0.471397 0.614846
1.95685 0.471397 0.810554
2.07738 0.471397 0.413217
2.02687 0.471397 0.614846
2.12686 0.55557 0.423059
2.07515 0.55557 0.629491
2.02687 0.471397 0.614846
1.95685 0.471397 0.810554
2.07515 0.55557 0.629491
2.00346 0.55557 0.829861
2.16853 0.55557 0
2.15809 0.55557 0.212553
2.22699 0.634393 0
2.21627 0.634393 0.218283
2.15809 0.55557 0.212553
2.12686 0.55557 0.423059
2.21627 0.634393 0.218283
2.1842 0.634393 0.434464
2.22699 0.634393 0
2.21627 0.634393 0.218283
2.29289 0.707107 0
2.28185 0.707107 0.224743
2.21627 0.634393 0.218283
2.1842 0.634393 0.434464
2.28185 0.707107 0.224743
2.24884 0.707107 0.447321
2.12686 0.55557 0.423059
2.07515 0.55557 0.629491
2.1842 0.634393 0.434464
2.1311 0.634393 0.646461
2.07515 0.55557 0.629491
2.00346 0.55557 0.829861
2.1311 0.634393 0.646461
2.05747 0.634393 0.852232
2.1842 0.634393 0.434464
2.1311 0.634393 0.646461
2.24884 0.707107 0.447321
2.19416 0.707107 0.665592
2.1311 0.634393 0.646461
2.05747 0.634393 0.852232
2.19416 0.707107 0.665592
2.11836 0.707107 0.877452
1.91809 0.382683 0.794497
1.83097 0.382683 0.978676
1.95685 0.471397 0.810554
1.86798 0.471397 0.998455
1.83097 0.382683 0.978676
1.72623 0.382683 1.15343
1.86798 0.471397 0.998455
1.76112 0.471397 1.17674
1.95685 0.471397 0.810554
1.86798 0.471397 0.998455
2.00346 0.55557 0.829861
1.91247 0.55557 1.02224
1.86798 0.471397 0.998455
1.76112 0.471397 1.17674
1.91247 0.55557 1.02224
1.80307 0.55557 1.20477
1.72623 0.382683 1.15343
1.60486 0.382683 1.31708
1.76112 0.471397 1.17674
1.6373 0.471397 1.34369
1.60486 0.382683 1.31708
1.46804 0.382683 1.46804
1.6373 0.471397 1.34369
1.49771 0.471397 1.49771
1.76112 0.471397 1.17674
1.6373 0.471397 1.34369
1.80307 0.55557 1.20477
1.6763 0.55557 1.3757
1.6373 0.471397 1.34369
1.49771 0.471397 1.49771
1.6763 0.55557 1.3757
1.53338 0.55557 1.53338
2.00346 0.55557 0.829861
1.91247 0.55557 1.02224
2.05747 0.634393 0.852232
1.96403 0.634393 1.0498
1.91247 0.55557 1.02224
1.80307 0.55557 1.20477
1.96403 0.634393 1.0498
1.85167 0.634393 1.23725
2.05747 0.634393 0.852232
1.96403 0.634393 1.0498
2.11836 0.707107 0.877452
2.02215 0.707107 1.08086
1.96403 0.634393 1.0498
1.85167 0.634393 1.23725
2.02215 0.707107 1.08086
1.90647 0.707107 1.27386
1.80307 0.55557 1.20477
1.6763 0.55557 1.3757
1.85167 0.634393 1.23725
1.72149 0.634393 1.41279
1.6763 0.55557 1.3757
1.53338 0.55557 1.53338
1.72149 0.634393 1.41279
1.57472 0.634393 1.57472
1.85167 0.634393 1.23725
1.72149 0.634393 1.41279
1.90647 0.707107 1.27386
1.77243 0.707107 1.4546
1.72149 0.634393 1.41279
1.57472 0.634393 1.57472
1.77243 0.707107 1.4546
1.62132 0.707107 1.62132
1.41421 1.22465e-16 1.41421
1.26879 1.22465e-16 1.54602
1.41762 0.0980171 1.41762
1.27184 0.0980171 1.54974
1.26879 1.22465e-16 1.54602
1.11114 1.22465e-16 1.66294
1.27184 0.0980171 1.54974
1.11382 0.0980171 1.66694
1.41762 0.0980171 1.41762
1.27184 0.0980171 1.54974
1.4278 0.19509 1.4278
1.28098 0.19509 1.56087
1.27184 0.0980171 1.54974
1.11382 0.0980171 1.66694
1.28098 0.19509 1.56087
1.12182 0.19509 1.67892
1.11114 1.22465e-16 1.66294
0.942793 1.22465e-16 1.76384
1.11382 0.0980171 1.66694
0.945063 0.0980171 1.76809
0.942793 1.22465e-16 1.76384
0.765367 1.22465e-16 1.84776
0.945063 0.0980171 1.76809
0.76721 0.0980171 1.85221
1.11382 0.0980171 1.66694
0.945063 0.0980171 1.76809
1.12182 0.19509 1.67892
0.951851 0.19509 1.78079
0.945063 0.0980171 1.76809
0.76721 0.0980171 1.85221
0.951851 0.19509 1.78079
0.77272 0.19509 1.86551
1.4278 0.19509 1.4278
1.28098 0.19509 1.56087
1.44466 0.290285 1.44466
1.2961 0.290285 1.57931
1.28098 0.19509 1.56087
1.12182 0.19509 1.67892
1.2961 0.290285 1.57931
1.13506 0.290285 1.69874
1.44466 0.290285 1.44466
1.2961 0.290285 1.57931
1.46804 0.382683 1.46804
1.31708 0.382683 1.60486
1.2961 0.290285 1.57931
1.13506 0.290285 1.69874
1.31708 0.382683 1.60486
1.15343 0.382683 1.72623
1.12182 0.19509 1.67892
0.951851 0.19509 1.78079
1.13506 0.290285 1.69874
0.963092 0.290285 1.80182
0.951851 0.19509 1.78079
0.77272 0.19509 1.86551
0.963092 0.290285 1.80182
0.781845 0.290285 1.88754
1.13506 0.290285 1.69874
0.963092 0.290285 1.80182
1.15343 0.382683 1.72623
0.978676 0.382683 1.83097
0.963092 0.290285 1.80182
0.781845 0.290285 1.88754
0.978676 0.382683 1.83097
0.794497 0.382683 1.91809
0.765367 1.22465e-16 1.84776
0.580569 1.22465e-16 1.91388
0.76721 0.0980171 1.85221
0.581967 0.0980171 1.91849
0.580569 1.22465e-16 1.91388
0.390181 1.22465e-16 1.96157
0.581967 0.0980171 1.91849
0.39112 0.0980171 1.96629
0.76721 0.0980171 1.85221
0.581967 0.0980171 1.91849
0.77272 0.19509 1.86551
0.586147 0.19509 1.93227
0.581967 0.0980171 1.91849
0.39112 0.0980171 1.96629
0.586147 0.19509 1.93227
0.393929 0.19509 1.98042
0.390181 1.22465e-16 1.96157
0.196034 1.22465e-16 1.99037
0.39112 0.0980171 1.96629
0.196506 0.0980171 1.99516
0.196034 1.22465e-16 1.99037
0 0 2
0.196506 0.0980171 1.99516
1.2276e-16 0.0980171 2.00482
0.39112 0.0980171 1.96629
0.196506 0.0980171 1.99516
0.393929 0.19509 1.98042
0.197918 0.19509 2.00949
0.196506 0.0980171 1.99516
1.2276e-16 0.0980171 2.00482
0.197918 0.19509 2.00949
1.23641e-16 0.19509 2.01921
0.77272 0.19509 1.86551
0.586147 0.19509 1.93227
0.781845 0.290285 1.88754
0.593069 0.290285 1.95509
0.586147 0.19509 1.93227
0.393929 0.19509 1.98042
0.593069 0.290285 1.95509
0.398581 0.290285 2.0038
0.781845 0.290285 1.88754
0.593069 0.290285 1.95509
0.794497 0.382683 1.91809
0.602666 0.382683 1.98672
0.593069 0.290285 1.95509
0.398581 0.290285 2.0038
0.602666 0.382683 1.98672
0.405031 0.382683 2.03623
0.393929 0.19509 1.98042
0.197918 0.19509 2.00949
0.398581 0.290285 2.0038
0.200255 0.290285 2.03322
0.197918 0.19509 2.00949
1.23641e-16 0.19509 2.01921
0.200255 0.290285 2.03322
1.25101e-16 0.290285 2.04306
0.398581 0.290285 2.0038
0.200255 0.290285 2.03322
0.405031 0.382683 2.03623
0.203495 0.382683 2.06612
0.200255 0.290285 2.03322
1.25101e-16 0.290285 2.04306
0.203495 0.382683 2.06612
1.27126e-16 0.382683 2.07612
1.46804 0.382683 1.46804
1.31708 0.382683 1.60486
1.49771 0.471397 1.49771
[...]
POINT_DATA 16384
SCALARS U double 1
LOOKUP_TABLE default
0.263512 0.236054 0.727135 0.649286 0.236054 0.168877 0.649286 0.459477 0.727135 0.649286 3.24568 2.9093 0.649286 0.459477 2.9093 2.06859 0.168877 0.0949577 0.459477 0.252516 0.0949577 0.0405619 0.252516 0.103278 0.459477 0.252516 2.06859 1.12763 0.252516 0.103278 1.12763 0.444174 3.24568 2.9093 11.1197 10.223 2.9093 2.06859 10.223 7.72215 11.1197 10.223 22.4481 21.7241 10.223 7.72215 21.7241 18.9969 2.06859 1.12763 7.72215 4.43632 1.12763 0.444174 4.43632 1.75296 7.72215 4.43632 18.9969 13.2385 4.43632 1.75296 13.2385 5.8859 0.0405619 0.0122278 0.103278 0.0286129 0.0122278 0.00210678 0.0286129 0.00392709 0.103278 0.0286129 0.444174 0.110957 0.0286129 0.00392709 0.110957 0.0100872 0.00210678 -1.49288e-05 0.00392709 -0.000360385 -1.49288e-05 -8.59279e-05 -0.000360385 -0.000201384 0.00392709 -0.000360385 0.0100872 -0.00287961 -0.000360385 -0.000201384 -0.00287961 -0.000682454 0.444174 0.110957 1.75296 0.399419 0.110957 0.0100872 0.399419 0.0149266 1.75296 0.399419 5.8859 1.25271 0.399419 0.0149266 1.25271 -0.0425515 0.0100872 -0.00287961 0.0149266 -0.0154299 -0.00287961 -0.000682454 -0.0154299 -0.00158191 0.0149266 -0.0154299 -0.0425515 -0.0654975 -0.0154299 -0.00158191 -0.0654975 0.000207666 22.4481 21.7241 23.914 24.1887 21.7241 18.9969 24.1887 24.8597 23.914 24.1887 22.0325 22.1188 24.1887 24.8597 22.1188 22.3793 18.9969 13.2385 24.8597 23.935 13.2385 5.8859 23.935 15.2923 24.8597 23.935 22.3793 23.717 23.935 15.2923 23.717 25.2222 22.0325 22.1188 22.6123 22.5091 22.1188 22.3793 22.5091 22.4477 22.6123 22.5091 22.801 22.7029 22.5091 22.4477 22.7029 23.0303 22.3793 23.717 22.4477 21.2557 23.717 25.2222 21.2557 25.6177 22.4477 21.2557 23.0303 21.6826 21.2557 25.6177 21.6826 24.6944 5.8859 1.25271 15.2923 3.29738 1.25271 -0.0425515 3.29738 -0.469747 15.2923 3.29738 25.2222 7.38066 3.29738 -0.469747 7.38066 -2.54567 -0.0425515 -0.0654975 -0.469747 -0.229418 -0.0654975 0.000207666 -0.229418 0.0292002 -0.469747 -0.229418 -2.54567 -0.579656 -0.229418 0.0292002 -0.579656 0.18683 25.2222 7.38066 25.6177 11.8386 7.38066 -2.54567 11.8386 -9.40327 25.6177 11.8386 24.6944 6.34203 11.8386 -9.40327 6.34203 -22.169 -2.54567 -0.579656 -9.40327 -0.705036 -0.579656 0.18683 -0.705036 0.752997 -9.40327 -0.705036 -22.169 1.50674 -0.705036 0.752997 1.50674 2.19812 -8.59279e-05 -6.082e-06 -0.000201384 5.14396e-06 -6.082e-06 3.82298e-06 5.14396e-06 9.48988e-06 -0.000201384 5.14396e-06 -0.000682454 0.000115377 5.14396e-06 9.48988e-06 0.000115377 3.06174e-05 3.82298e-06 2.28105e-07 9.48988e-06 -6.51628e-07 2.28105e-07 -2.09354e-07 -6.51628e-07 -4.39588e-07 9.48988e-06 -6.51628e-07 3.06174e-05 -7.97473e-06 -6.51628e-07 -4.39588e-07 -7.97473e-06 -8.05974e-07 -0.000682454 0.000115377 -0.00158191 0.000750935 0.000115377 3.06174e-05 0.000750935 4.31536e-05 -0.00158191 0.000750935 0.000207666 0.00341612 0.000750935 4.31536e-05 0.00341612 -0.000298229 3.06174e-05 -7.97473e-06 4.31536e-05 -4.41793e-05 -7.97473e-06 -8.05974e-07 -4.41793e-05 3.55165e-06 4.31536e-05 -4.41793e-05 -0.000298229 -0.000145593 -4.41793e-05 3.55165e-06 -0.000145593 3.81928e-05 -2.09354e-07 7.36773e-09 -4.39588e-07 8.47409e-08 7.36773e-09 1.05741e-08 8.47409e-08 1.1953e-08 -4.39588e-07 8.47409e-08 -8.05974e-07 5.51176e-07 8.47409e-08 1.1953e-08 5.51176e-07 -5.05626e-08 1.05741e-08 -2.21072e-09 1.1953e-08 -7.14791e-09 -2.21072e-09 1.96515e-12 -7.14791e-09 1.31048e-11 1.1953e-08 -7.14791e-09 -5.05626e-08 -2.04265e-08 -7.14791e-09 1.31048e-11 -2.04265e-08 4.13411e-11 -8.05974e-07 5.51176e-07 3.55165e-06 1.80808e-06 5.51176e-07 -5.05626e-08 1.80808e-06 -5.38908e-07 3.55165e-06 1.80808e-06 3.81928e-05 1.06374e-06 1.80808e-06 -5.38908e-07 1.06374e-06 -2.3959e-06 -5.05626e-08 -2.04265e-08 -5.38908e-07 1.90467e-08 -2.04265e-08 4.13411e-11 1.90467e-08 1.50148e-10 -5.38908e-07 1.90467e-08 -2.3959e-06 5.25549e-07 1.90467e-08 1.50148e-10 5.25549e-07 -1.10561e-09 0.000207666 0.00341612 0.0292002 0.0104667 0.00341612 -0.000298229 0.0104667 -0.00270858 0.0292002 0.0104667 0.18683 0.0158808 0.0104667 -0.00270858 0.0158808 -0.0126959 -0.000298229 -0.000145593 -0.00270858 -0.000184406 -0.000145593 3.81928e-05 -0.000184406 0.000182083 -0.00270858 -0.000184406 -0.0126959 0.00121733 -0.000184406 0.000182083 0.00121733 0.000484129 0.18683 0.0158808 0.752997 -0.044125 0.0158808 -0.0126959 -0.044125 -0.0393055 0.752997 -0.044125 2.19812 -0.455369 -0.044125 -0.0393055 -0.455369 -0.0634354 -0.0126959 0.00121733 -0.0393055 0.0103049 0.00121733 0.000484129 0.0103049 3.10319e-05 -0.0393055 0.0103049 -0.0634354 0.0437131 0.0103049 3.10319e-05 0.0437131 -0.006944 3.81928e-05 1.06374e-06 0.000182083 -2.68559e-05 1.06374e-06 -2.3959e-06 -2.68559e-05 -4.31237e-06 0.000182083 -2.68559e-05 0.000484129 -0.000179912 -2.68559e-05 -4.31237e-06 -0.000179912 1.66552e-05 -2.3959e-06 5.25549e-07 -4.31237e-06 2.64353e-06 5.25549e-07 -1.10561e-09 2.64353e-06 -6.75365e-09 -4.31237e-06 2.64353e-06 1.66552e-05 5.53128e-06 2.64353e-06 -6.75365e-09 5.53128e-06 -1.76105e-08 0.000484129 -0.000179912 3.10319e-05 -0.000616796 -0.000179912 1.66552e-05 -0.000616796 0.000164039 3.10319e-05 -0.000616796 -0.006944 -0.000766637 -0.000616796 0.000164039 -0.000766637 0.00062973 1.66552e-05 5.53128e-06 0.000164039 -1.32787e-05 5.53128e-06 -1.76105e-08 -1.32787e-05 3.08686e-09 0.000164039 -1.32787e-05 0.00062973 -0.000147953 -1.32787e-05 3.08686e-09 -0.000147953 2.55576e-07 22.801 22.7029 22.6458 22.4968 22.7029 23.0303 22.4968 22.9313 22.6458 22.4968 22.6444 22.5263 22.4968 22.9313 22.5263 22.8254 23.0303 21.6826 22.9313 21.5404 21.6826 24.6944 21.5404 26.638 22.9313 21.5404 22.8254 21.6134 21.5404 26.638 21.6134 26.1248 22.6444 22.5263 22.6453 22.5567 22.5263 22.8254 22.5567 22.8362 22.6453 22.5567 22.6755 22.4622 22.5567 22.8362 22.4622 23.1356 22.8254 21.6134 22.8362 21.7251 21.6134 26.1248 21.7251 24.7499 22.8362 21.7251 23.1356 20.6877 21.7251 24.7499 20.6877 31.3511 24.6944 6.34203 26.638 -16.6281 6.34203 -22.169 -16.6281 -28.6916 26.638 -16.6281 26.1248 -25.1899 -16.6281 -28.6916 -25.1899 -26.9058 -22.169 1.50674 -28.6916 9.94041 1.50674 2.19812 9.94041 4.43677 -28.6916 9.94041 -26.9058 26.1567 9.94041 4.43677 26.1567 2.76393 26.1248 -25.1899 24.7499 -25.6738 -25.1899 -26.9058 -25.6738 -20.6504 24.7499 -25.6738 31.3511 -34.2643 -25.6738 -20.6504 -34.2643 22.9153 -26.9058 26.1567 -20.6504 35.0138 26.1567 2.76393 35.0138 -10.9548 -20.6504 35.0138 22.9153 26.8001 35.0138 -10.9548 26.8001 -28.5199 22.6755 22.4622 22.4252 22.9801 22.4622 23.1356 22.9801 21.2885 22.4252 22.9801 22.4772 22.8956 22.9801 21.2885 22.8956 21.6315 23.1356 20.6877 21.2885 27.109 20.6877 31.3511 27.109 -12.9822 21.2885 27.109 21.6315 25.9041 27.109 -12.9822 25.9041 -27.0757 22.4772 22.8956 22.475 22.9109 22.8956 21.6315 22.9109 21.5843 22.475 22.9109 22.47 22.926 22.9109 21.5843 22.926 21.537 21.6315 25.9041 21.5843 26.1297 25.9041 -27.0757 26.1297 -22.1752 21.5843 26.1297 21.537 26.2206 26.1297 -22.1752 26.2206 -25.2676 31.3511 -34.2643 -12.9822 -28.6165 -34.2643 22.9153 -28.6165 25.0227 -12.9822 -28.6165 -27.0757 -22.7852 -28.6165 25.0227 -22.7852 27.0311 22.9153 26.8001 25.0227 26.2658 26.8001 -28.5199 26.2658 -34.332 25.0227 26.2658 27.0311 21.1164 26.2658 -34.332 21.1164 -34.3471 -27.0757 -22.7852 -22.1752 -26.0625 -22.7852 27.0311 -26.0625 34.1081 -22.1752 -26.0625 -25.2676 -26.0263 -26.0625 34.1081 -26.0263 35.0799 27.0311 21.1164 34.1081 -26.4001 21.1164 -34.3471 -26.4001 -25.6862 34.1081 -26.4001 35.0799 -26.5127 -26.4001 -25.6862 -26.5127 -23.1951 2.19812 -0.455369 4.43677 -2.05137 -0.455369 -0.0634354 -2.05137 0.130137 4.43677 -2.05137 2.76393 -5.69117 -2.05137 0.130137 -5.69117 1.26603 -0.0634354 0.0437131 0.130137 0.109757 0.0437131 -0.006944 0.109757 -0.0375529 0.130137 0.109757 1.26603 0.10814 0.109757 -0.0375529 0.10814 -0.121204 2.76393 -5.69117 -10.9548 -9.77745 -5.69117 1.26603 -9.77745 4.89215 -10.9548 -9.77745 -28.5199 -5.7343 -9.77745 4.89215 -5.7343 11.9864 1.26603 0.10814 4.89215 -0.534042 0.10814 -0.121204 -0.534042 -0.221948 4.89215 -0.534042 11.9864 -3.4453 -0.534042 -0.221948 -3.4453 0.0818731 -0.006944 -0.000766637 -0.0375529 0.00378223 -0.000766637 0.00062973 0.00378223 0.00118765 -0.0375529 0.00378223 -0.121204 0.0300849 0.00378223 0.00118765 0.0300849 -0.00189393 0.00062973 -0.000147953 0.00118765 -0.000601141 -0.000147953 2.55576e-07 -0.000601141 1.59826e-06 0.00118765 -0.000601141 -0.00189393 -0.00114082 -0.000601141 1.59826e-06 -0.00114082 3.28316e-06 -0.121204 0.0300849 -0.221948 0.112368 0.0300849 -0.00189393 0.112368 -0.0234753 -0.221948 0.112368 0.0818731 0.245656 0.112368 -0.0234753 0.245656 -0.0936845 -0.00189393 -0.00114082 -0.0234753 0.00141973 -0.00114082 3.28316e-06 0.00141973 -2.26229e-06 -0.0234753 0.00141973 -0.0936845 0.0184834 0.00141973 -2.26229e-06 0.0184834 -3.64228e-05 -28.5199 -5.7343 -34.332 17.8265 -5.7343 11.9864 17.8265 16.0694 -34.332 17.8265 -34.3471 34.7762 17.8265 16.0694 34.7762 2.27025 11.9864 -3.4453 16.0694 -10.3713 -3.4453 0.0818731 -10.3713 2.09806 16.0694 -10.3713 2.27025 -18.9893 -10.3713 2.09806 -18.9893 8.1061 -34.3471 34.7762 -25.6862 34.2975 34.7762 2.27025 34.2975 -27.2905 -25.6862 34.2975 -23.1951 35.4343 34.2975 -27.2905 35.4343 -35.6425 2.27025 -18.9893 -27.2905 -15.8036 -18.9893 8.1061 -15.8036 18.1783 -27.2905 -15.8036 -35.6425 13.4018 -15.8036 18.1783 13.4018 23.434 0.0818731 0.245656 2.09806 0.174878 0.245656 -0.0936845 0.174878 -0.227817 2.09806 0.174878 8.1061 -1.10694 0.174878 -0.227817 -1.10694 -0.260902 -0.0936845 0.0184834 -0.227817 0.0737875 0.0184834 -3.64228e-05 0.0737875 -0.000175711 -0.227817 0.0737875 -0.260902 0.177392 0.0737875 -0.000175711 0.177392 -0.000412348 8.1061 -1.10694 18.1783 -5.60376 -1.10694 -0.260902 -5.60376 0.512015 18.1783 -5.60376 23.434 -14.5173 -5.60376 0.512015 -14.5173 3.6381 -0.260902 0.177392 0.512015 0.217254 0.177392 -0.000412348 0.217254 -0.000325099 0.512015 0.217254 3.6381 -0.264811 0.217254 -0.000325099 -0.264811 0.00039024 22.47 22.926 22.475 22.9109 22.926 21.537 22.9109 21.5843 22.475 22.9109 22.4771 22.8956 22.9109 21.5843 22.8956 21.6314 21.537 26.2207 21.5843 26.1297 26.2207 -25.2688 26.1297 -22.1748 21.5843 26.1297 21.6314 25.9042 26.1297 -22.1748 25.9042 -27.0765 22.4771 22.8956 22.4252 22.9801 22.8956 21.6314 22.9801 21.2886 22.4252 22.9801 22.6755 22.4622 22.9801 21.2886 22.4622 23.1357 21.6314 25.9042 21.2886 27.1089 25.9042 -27.0765 27.1089 -12.9806 21.2886 27.1089 23.1357 20.6877 27.1089 -12.9806 20.6877 31.3512 -25.2688 -26.0235 -22.1748 -26.0638 -26.0235 35.0799 -26.0638 34.1088 -22.1748 -26.0638 -27.0765 -22.7837 -26.0638 34.1088 -22.7837 27.0205 35.0799 -26.5183 34.1088 -26.3972 -26.5183 -23.1805 -26.3972 -25.6913 34.1088 -26.3972 27.0205 21.1563 -26.3972 -25.6913 21.1563 -34.3504 -27.0765 -22.7837 -12.9806 -28.6168 -22.7837 27.0205 -28.6168 25.0207 -12.9806 -28.6168 31.3512 -34.265 -28.6168 25.0207 -34.265 22.9271 27.0205 21.1563 25.0207 26.2612 21.1563 -34.3504 26.2612 -34.3371 25.0207 26.2612 22.9271 26.7967 26.2612 -34.3371 26.7967 -28.5063 22.6755 22.4622 22.6453 22.5567 22.4622 23.1357 22.5567 22.8362 22.6453 22.5567 22.6444 22.5263 22.5567 22.8362 22.5263 22.8254 23.1357 20.6877 22.8362 21.7249 20.6877 31.3512 21.7249 24.7504 22.8362 21.7249 22.8254 21.6134 21.7249 24.7504 21.6134 26.1247 22.6444 22.5263 22.6458 22.4968 22.5263 22.8254 22.4968 22.9313 22.6458 22.4968 22.801 22.7029 22.4968 22.9313 22.7029 23.0302 22.8254 21.6134 22.9313 21.5404 21.6134 26.1247 21.5404 26.638 22.9313 21.5404 23.0302 21.6826 21.5404 26.638 21.6826 24.6942 31.3512 -34.265 24.7504 -25.6784 -34.265 22.9271 -25.6784 -20.6353 24.7504 -25.6784 26.1247 -25.1906 -25.6784 -20.6353 -25.1906 -26.9084 22.9271 26.7967 -20.6353 35.007 26.7967 -28.5063 35.007 -10.9226 -20.6353 35.007 -26.9084 26.1661 35.007 -10.9226 26.1661 2.78166 26.1247 -25.1906 26.638 -16.6264 -25.1906 -26.9084 -16.6264 -28.6924 26.638 -16.6264 24.6942 6.34401 -16.6264 -28.6924 6.34401 -22.1672 -26.9084 26.1661 -28.6924 9.9513 26.1661 2.78166 9.9513 4.44394 -28.6924 9.9513 -22.1672 1.51116 9.9513 4.44394 1.51116 2.20078 -23.1805 35.4331 -25.6913 34.2972 35.4331 -35.6418 34.2972 -27.292 -25.6913 34.2972 -34.3504 34.7768 34.2972 -27.292 34.7768 2.26687 -35.6418 13.4009 -27.292 -15.804 13.4009 23.4254 -15.804 18.1742 -27.292 -15.804 2.26687 -18.9895 -15.804 18.1742 -18.9895 8.1046 -34.3504 34.7768 -34.3371 17.8447 34.7768 2.26687 17.8447 16.0687 -34.3371 17.8447 -28.5063 -5.71646 17.8447 16.0687 -5.71646 11.9882 2.26687 -18.9895 16.0687 -10.3716 -18.9895 8.1046 -10.3716 2.09773 16.0687 -10.3716 11.9882 -3.44574 -10.3716 2.09773 -3.44574 0.081856 23.4254 -14.5219 18.1742 -5.60608 -14.5219 3.63833 -5.60608 0.512096 18.1742 -5.60608 8.1046 -1.10787 -5.60608 0.512096 -1.10787 -0.260893 3.63833 -0.264872 0.512096 0.217274 -0.264872 0.000319016 0.217274 -0.000369228 0.512096 0.217274 -0.260893 0.177417 0.217274 -0.000369228 0.177417 -0.000430948 8.1046 -1.10787 2.09773 0.174572 -1.10787 -0.260893 0.174572 -0.227825 2.09773 0.174572 0.081856 0.245581 0.174572 -0.227825 0.245581 -0.0936912 -0.260893 0.177417 -0.227825 0.0738028 0.177417 -0.000430948 0.0738028 -0.000181643 -0.227825 0.0738028 -0.0936912 0.0184899 0.0738028 -0.000181643 0.0184899 -3.74508e-05 -28.5063 -5.71646 -10.9226 -9.76681 -5.71646 11.9882 -9.76681 4.89371 -10.9226 -9.76681 2.78166 -5.68467 -9.76681 4.89371 -5.68467 1.2667 11.9882 -3.44574 4.89371 -0.534257 -3.44574 0.081856 -0.534257 -0.221935 4.89371 -0.534257 1.2667 0.10812 -0.534257 -0.221935 0.10812 -0.121208 2.78166 -5.68467 4.44394 -2.0486 -5.68467 1.2667 -2.0486 0.130512 4.44394 -2.0486 2.20078 -0.454417 -2.0486 0.130512 -0.454417 -0.063251 1.2667 0.10812 0.130512 0.109758 0.10812 -0.121208 0.109758 -0.0375533 0.130512 0.109758 -0.063251 0.0437195 0.109758 -0.0375533 0.0437195 -0.00694422 0.081856 0.245581 -0.221935 0.112359 0.245581 -0.0936912 0.112359 -0.0234773 -0.221935 0.112359 -0.121208 0.0300895 0.112359 -0.0234773 0.0300895 -0.0018941 -0.0936912 0.0184899 -0.0234773 0.00142171 0.0184899 -3.74508e-05 0.00142171 -2.04198e-06 -0.0234773 0.00142171 -0.0018941 -0.00114023 0.00142171 -2.04198e-06 -0.00114023 3.49706e-06 -0.121208 0.0300895 -0.0375533 0.0037846 0.0300895 -0.0018941 0.0037846 0.00118821 -0.0375533 0.0037846 -0.00694422 -0.000765696 0.0037846 0.00118821 -0.000765696 0.000630075 -0.0018941 -0.00114023 0.00118821 -0.000601002 -0.00114023 3.49706e-06 -0.000601002 1.70499e-06 0.00118821 -0.000601002 0.000630075 -0.000147892 -0.000601002 1.70499e-06 -0.000147892 2.84992e-07 22.801 22.7029 22.6123 22.5091 22.7029 23.0302 22.5091 22.4477 22.6123 22.5091 22.0325 22.1188 22.5091 22.4477 22.1188 22.3793 23.0302 21.6826 22.4477 21.2557 21.6826 24.6942 21.2557 25.6177 22.4477 21.2557 22.3793 23.717 21.2557 25.6177 23.717 25.2222 22.0325 22.1188 23.914 24.1887 22.1188 22.3793 24.1887 24.8597 23.914 24.1887 22.4481 21.7241 24.1887 24.8597 21.7241 18.9969 22.3793 23.717 24.8597 23.935 23.717 25.2222 23.935 15.2923 24.8597 23.935 18.9969 13.2384 23.935 15.2923 13.2384 5.88588 24.6942 6.34401 25.6177 11.8393 6.34401 -22.1672 11.8393 -9.40207 25.6177 11.8393 25.2222 7.38083 11.8393 -9.40207 7.38083 -2.54533 -22.1672 1.51116 -9.40207 -0.703764 1.51116 2.20078 -0.703764 0.753812 -9.40207 -0.703764 -2.54533 -0.579332 -0.703764 0.753812 -0.579332 0.187043 25.2222 7.38083 15.2923 3.2974 7.38083 -2.54533 3.2974 -0.469686 15.2923 3.2974 5.88588 1.2527 3.2974 -0.469686 1.2527 -0.0425476 -2.54533 -0.579332 -0.469686 -0.22935 -0.579332 0.187043 -0.22935 0.0292494 -0.469686 -0.22935 -0.0425476 -0.0654871 -0.22935 0.0292494 -0.0654871 0.000217329 22.4481 21.7241 11.1197 10.223 21.7241 18.9969 10.223 7.72214 11.1197 10.223 3.24568 2.9093 10.223 7.72214 2.9093 2.06858 18.9969 13.2384 7.72214 4.4363 13.2384 5.88588 4.4363 1.75295 7.72214 4.4363 2.06858 1.12763 4.4363 1.75295 1.12763 0.44417 3.24568 2.9093 0.727135 0.649286 2.9093 2.06858 0.649286 0.459477 0.727135 0.649286 0.263512 0.236054 0.649286 0.459477 0.236054 0.168877 2.06858 1.12763 0.459477 0.252515 1.12763 0.44417 0.252515 0.103277 0.459477 0.252515 0.168877 0.0949577 0.252515 0.103277 0.0949577 0.0405619 5.88588 1.2527 1.75295 0.399412 1.2527 -0.0425476 0.399412 0.0149241 1.75295 0.399412 0.44417 0.110954 0.399412 0.0149241 0.110954 0.0100857 -0.0425476 -0.0654871 0.0149241 -0.0154295 -0.0654871 0.000217329 -0.0154295 -0.00158051 0.0149241 -0.0154295 0.0100857 -0.00288009 -0.0154295 -0.00158051 -0.00288009 -0.000682403 0.44417 0.110954 0.103277 0.0286121 0.110954 0.0100857 0.0286121 0.00392659 0.103277 0.0286121 0.0405619 0.0122278 0.0286121 0.00392659 0.0122278 0.00210678 0.0100857 -0.00288009 0.00392659 -0.000360619 -0.00288009 -0.000682403 -0.000360619 -0.000201435 0.00392659 -0.000360619 0.00210678 -1.49288e-05 -0.000360619 -0.000201435 -1.49288e-05 -8.59279e-05 2.20078 -0.454417 0.753812 -0.0438161 -0.454417 -0.063251 -0.0438161 -0.0392341 0.753812 -0.0438161 0.187043 0.0159726 -0.0438161 -0.0392341 0.0159726 -0.0126714 -0.063251 0.0437195 -0.0392341 0.0103112 0.0437195 -0.00694422 0.0103112 3.08483e-05 -0.0392341 0.0103112 -0.0126714 0.00122062 0.0103112 3.08483e-05 0.00122062 0.000484173 0.187043 0.0159726 0.0292494 0.0104909 0.0159726 -0.0126714 0.0104909 -0.00270102 0.0292494 0.0104909 0.000217329 0.00342171 0.0104909 -0.00270102 0.00342171 -0.000296158 -0.0126714 0.00122062 -0.00270102 -0.00018309 0.00122062 0.000484173 -0.00018309 0.000182157 -0.00270102 -0.00018309 -0.000296158 -0.000145148 -0.00018309 0.000182157 -0.000145148 3.82333e-05 -0.00694422 -0.000765696 3.08483e-05 -0.000616496 -0.000765696 0.000630075 -0.000616496 0.000164184 3.08483e-05 -0.000616496 0.000484173 -0.000179852 -0.000616496 0.000164184 -0.000179852 1.67066e-05 0.000630075 -0.000147892 0.000164184 -1.32474e-05 -0.000147892 2.84992e-07 -1.32474e-05 1.03896e-08 0.000164184 -1.32474e-05 1.67066e-05 5.54419e-06 -1.32474e-05 1.03896e-08 5.54419e-06 -1.53364e-08 0.000484173 -0.000179852 0.000182157 -2.6848e-05 -0.000179852 1.67066e-05 -2.6848e-05 -4.29796e-06 0.000182157 -2.6848e-05 3.82333e-05 1.06548e-06 -2.6848e-05 -4.29796e-06 1.06548e-06 -2.39315e-06 1.67066e-05 5.54419e-06 -4.29796e-06 2.64808e-06 5.54419e-06 -1.53364e-08 2.64808e-06 -5.98539e-09 -4.29796e-06 2.64808e-06 -2.39315e-06 5.26986e-07 2.64808e-06 -5.98539e-09 5.26986e-07 -8.65668e-10 0.000217329 0.00342171 -0.00158051 0.000752032 0.00342171 -0.000296158 0.000752032 4.36499e-05 -0.00158051 0.000752032 -0.000682403 0.000115537 0.000752032 4.36499e-05 0.000115537 3.07212e-05 -0.000296158 -0.000145148 4.36499e-05 -4.40498e-05 -0.000145148 3.82333e-05 -4.40498e-05 3.56724e-06 4.36499e-05 -4.40498e-05 3.07212e-05 -7.94371e-06 -4.40498e-05 3.56724e-06 -7.94371e-06 -8.00655e-07 -0.000682403 0.000115537 -0.000201435 5.15415e-06 0.000115537 3.07212e-05 5.15415e-06 9.50707e-06 -0.000201435 5.15415e-06 -8.59279e-05 -6.082e-06 5.15415e-06 9.50707e-06 -6.082e-06 3.82298e-06 3.07212e-05 -7.94371e-06 9.50707e-06 -6.45004e-07 -7.94371e-06 -8.00655e-07 -6.45004e-07 -4.3832e-07 9.50707e-06 -6.45004e-07 3.82298e-06 2.28105e-07 -6.45004e-07 -4.3832e-07 2.28105e-07 -2.09354e-07 3.82333e-05 1.06548e-06 3.56724e-06 1.80854e-06 1.06548e-06 -2.39315e-06 1.80854e-06 -5.38542e-07 3.56724e-06 1.80854e-06 -8.00655e-07 5.51188e-07 1.80854e-06 -5.38542e-07 5.51188e-07 -5.05792e-08 -2.39315e-06 5.26986e-07 -5.38542e-07 1.9353e-08 5.26986e-07 -8.65668e-10 1.9353e-08 2.10145e-10 -5.38542e-07 1.9353e-08 -5.05792e-08 -2.03816e-08 1.9353e-08 2.10145e-10 -2.03816e-08 4.5887e-11 -8.00655e-07 5.51188e-07 -4.3832e-07 8.47552e-08 5.51188e-07 -5.05792e-08 8.47552e-08 1.19205e-08 -4.3832e-07 8.47552e-08 -2.09354e-07 7.36773e-09 8.47552e-08 1.19205e-08 7.36773e-09 1.05741e-08 -5.05792e-08 -2.03816e-08 1.19205e-08 -7.1555e-09 -2.03816e-08 4.5887e-11 -7.1555e-09 9.25888e-12 1.19205e-08 -7.1555e-09 1.05741e-08 -2.21072e-09 -7.1555e-09 9.25888e-12 -2.21072e-09 1.96515e-12 20.3888 26.7055 20.6321 26.2683 26.7055 -24.2536 26.2683 -22.9343 20.6321 26.2683 19.9118 27.5747 26.2683 -22.9343 27.5747 -26.6779 -24.2536 -25.2153 -22.9343 -25.1721 -25.2153 33.7941 -25.172