# vtk DataFile Version 3.0
#This file was generated by the deal.II library on 2023/3/8 at 18:39:26
ASCII
DATASET UNSTRUCTURED_GRID

FIELD FieldData 2
CYCLE 1 1 int
200
TIME 1 1 double
0.4
POINTS 1024 double
2 0 0
1.84776 1.22465e-16 0.765367
2.07612 0.382683 0
1.91809 0.382683 0.794497
1.84776 1.22465e-16 0.765367
1.41421 1.22465e-16 1.41421
1.91809 0.382683 0.794497
1.46804 0.382683 1.46804
2.07612 0.382683 0
1.91809 0.382683 0.794497
2.29289 0.707107 0
2.11836 0.707107 0.877452
1.91809 0.382683 0.794497
1.46804 0.382683 1.46804
2.11836 0.707107 0.877452
1.62132 0.707107 1.62132
1.41421 1.22465e-16 1.41421
0.765367 1.22465e-16 1.84776
1.46804 0.382683 1.46804
0.794497 0.382683 1.91809
0.765367 1.22465e-16 1.84776
0 0 2
0.794497 0.382683 1.91809
1.27126e-16 0.382683 2.07612
1.46804 0.382683 1.46804
0.794497 0.382683 1.91809
1.62132 0.707107 1.62132
0.877452 0.707107 2.11836
0.794497 0.382683 1.91809
1.27126e-16 0.382683 2.07612
0.877452 0.707107 2.11836
1.40399e-16 0.707107 2.29289
2.29289 0.707107 0
2.11836 0.707107 0.877452
2.61732 0.92388 0
2.41809 0.92388 1.0016
2.11836 0.707107 0.877452
1.62132 0.707107 1.62132
2.41809 0.92388 1.0016
1.85072 0.92388 1.85072
2.61732 0.92388 0
2.41809 0.92388 1.0016
3 1 0
2.77164 1 1.14805
2.41809 0.92388 1.0016
1.85072 0.92388 1.85072
2.77164 1 1.14805
2.12132 1 2.12132
1.62132 0.707107 1.62132
0.877452 0.707107 2.11836
1.85072 0.92388 1.85072
1.0016 0.92388 2.41809
0.877452 0.707107 2.11836
1.40399e-16 0.707107 2.29289
1.0016 0.92388 2.41809
1.60264e-16 0.92388 2.61732
1.85072 0.92388 1.85072
1.0016 0.92388 2.41809
2.12132 1 2.12132
1.14805 1 2.77164
1.0016 0.92388 2.41809
1.60264e-16 0.92388 2.61732
1.14805 1 2.77164
0 1 3
3 -1 0
2.77164 -1 1.14805
2.61732 -0.92388 0
2.41809 -0.92388 1.0016
2.77164 -1 1.14805
2.12132 -1 2.12132
2.41809 -0.92388 1.0016
1.85072 -0.92388 1.85072
2.61732 -0.92388 0
2.41809 -0.92388 1.0016
2.29289 -0.707107 0
2.11836 -0.707107 0.877452
2.41809 -0.92388 1.0016
1.85072 -0.92388 1.85072
2.11836 -0.707107 0.877452
1.62132 -0.707107 1.62132
2.12132 -1 2.12132
1.14805 -1 2.77164
1.85072 -0.92388 1.85072
1.0016 -0.92388 2.41809
1.14805 -1 2.77164
0 -1 3
1.0016 -0.92388 2.41809
1.60264e-16 -0.92388 2.61732
1.85072 -0.92388 1.85072
1.0016 -0.92388 2.41809
1.62132 -0.707107 1.62132
0.877452 -0.707107 2.11836
1.0016 -0.92388 2.41809
1.60264e-16 -0.92388 2.61732
0.877452 -0.707107 2.11836
1.40399e-16 -0.707107 2.29289
2.29289 -0.707107 0
2.11836 -0.707107 0.877452
2.07612 -0.382683 0
1.91809 -0.382683 0.794497
2.11836 -0.707107 0.877452
1.62132 -0.707107 1.62132
1.91809 -0.382683 0.794497
1.46804 -0.382683 1.46804
2.07612 -0.382683 0
1.91809 -0.382683 0.794497
2 0 0
1.84776 1.22465e-16 0.765367
1.91809 -0.382683 0.794497
1.46804 -0.382683 1.46804
1.84776 1.22465e-16 0.765367
1.41421 1.22465e-16 1.41421
1.62132 -0.707107 1.62132
0.877452 -0.707107 2.11836
1.46804 -0.382683 1.46804
0.794497 -0.382683 1.91809
0.877452 -0.707107 2.11836
1.40399e-16 -0.707107 2.29289
0.794497 -0.382683 1.91809
1.27126e-16 -0.382683 2.07612
1.46804 -0.382683 1.46804
0.794497 -0.382683 1.91809
1.41421 1.22465e-16 1.41421
0.765367 1.22465e-16 1.84776
0.794497 -0.382683 1.91809
1.27126e-16 -0.382683 2.07612
0.765367 1.22465e-16 1.84776
0 0 2
4 0 0
3.69552 0 1.53073
3.92388 -0.382683 0
3.62519 -0.382683 1.5016
3.69552 0 1.53073
2.82843 0 2.82843
3.62519 -0.382683 1.5016
2.7746 -0.382683 2.7746
3.92388 -0.382683 0
3.62519 -0.382683 1.5016
3.70711 -0.707107 0
3.42492 -0.707107 1.41865
3.62519 -0.382683 1.5016
2.7746 -0.382683 2.7746
3.42492 -0.707107 1.41865
2.62132 -0.707107 2.62132
2.82843 0 2.82843
1.53073 0 3.69552
2.7746 -0.382683 2.7746
1.5016 -0.382683 3.62519
1.53073 0 3.69552
0 0 4
1.5016 -0.382683 3.62519
2.40268e-16 -0.382683 3.92388
2.7746 -0.382683 2.7746
1.5016 -0.382683 3.62519
2.62132 -0.707107 2.62132
1.41865 -0.707107 3.42492
1.5016 -0.382683 3.62519
2.40268e-16 -0.382683 3.92388
1.41865 -0.707107 3.42492
2.26995e-16 -0.707107 3.70711
3.70711 -0.707107 0
3.42492 -0.707107 1.41865
3.38268 -0.92388 0
3.12519 -0.92388 1.2945
3.42492 -0.707107 1.41865
2.62132 -0.707107 2.62132
3.12519 -0.92388 1.2945
2.39192 -0.92388 2.39192
3.38268 -0.92388 0
3.12519 -0.92388 1.2945
3 -1 0
2.77164 -1 1.14805
3.12519 -0.92388 1.2945
2.39192 -0.92388 2.39192
2.77164 -1 1.14805
2.12132 -1 2.12132
2.62132 -0.707107 2.62132
1.41865 -0.707107 3.42492
2.39192 -0.92388 2.39192
1.2945 -0.92388 3.12519
1.41865 -0.707107 3.42492
2.26995e-16 -0.707107 3.70711
1.2945 -0.92388 3.12519
2.0713e-16 -0.92388 3.38268
2.39192 -0.92388 2.39192
1.2945 -0.92388 3.12519
2.12132 -1 2.12132
1.14805 -1 2.77164
1.2945 -0.92388 3.12519
2.0713e-16 -0.92388 3.38268
1.14805 -1 2.77164
0 -1 3
3 1 0
2.77164 1 1.14805
3.38268 0.92388 0
3.12519 0.92388 1.2945
2.77164 1 1.14805
2.12132 1 2.12132
3.12519 0.92388 1.2945
2.39192 0.92388 2.39192
3.38268 0.92388 0
3.12519 0.92388 1.2945
3.70711 0.707107 0
3.42492 0.707107 1.41865
3.12519 0.92388 1.2945
2.39192 0.92388 2.39192
3.42492 0.707107 1.41865
2.62132 0.707107 2.62132
2.12132 1 2.12132
1.14805 1 2.77164
2.39192 0.92388 2.39192
1.2945 0.92388 3.12519
1.14805 1 2.77164
0 1 3
1.2945 0.92388 3.12519
2.0713e-16 0.92388 3.38268
2.39192 0.92388 2.39192
1.2945 0.92388 3.12519
2.62132 0.707107 2.62132
1.41865 0.707107 3.42492
1.2945 0.92388 3.12519
2.0713e-16 0.92388 3.38268
1.41865 0.707107 3.42492
2.26995e-16 0.707107 3.70711
3.70711 0.707107 0
3.42492 0.707107 1.41865
3.92388 0.382683 0
3.62519 0.382683 1.5016
3.42492 0.707107 1.41865
2.62132 0.707107 2.62132
3.62519 0.382683 1.5016
2.7746 0.382683 2.7746
3.92388 0.382683 0
3.62519 0.382683 1.5016
4 0 0
3.69552 0 1.53073
3.62519 0.382683 1.5016
2.7746 0.382683 2.7746
3.69552 0 1.53073
2.82843 0 2.82843
2.62132 0.707107 2.62132
1.41865 0.707107 3.42492
2.7746 0.382683 2.7746
1.5016 0.382683 3.62519
1.41865 0.707107 3.42492
2.26995e-16 0.707107 3.70711
1.5016 0.382683 3.62519
2.40268e-16 0.382683 3.92388
2.7746 0.382683 2.7746
1.5016 0.382683 3.62519
2.82843 0 2.82843
1.53073 0 3.69552
1.5016 0.382683 3.62519
2.40268e-16 0.382683 3.92388
1.53073 0 3.69552
0 0 4
0 0 2
-0.765367 1.22465e-16 1.84776
1.27126e-16 0.382683 2.07612
-0.794497 0.382683 1.91809
-0.765367 1.22465e-16 1.84776
-1.41421 1.22465e-16 1.41421
-0.794497 0.382683 1.91809
-1.46804 0.382683 1.46804
1.27126e-16 0.382683 2.07612
-0.794497 0.382683 1.91809
1.40399e-16 0.707107 2.29289
-0.877452 0.707107 2.11836
-0.794497 0.382683 1.91809
-1.46804 0.382683 1.46804
-0.877452 0.707107 2.11836
-1.62132 0.707107 1.62132
-1.41421 1.22465e-16 1.41421
-1.84776 1.22465e-16 0.765367
-1.46804 0.382683 1.46804
-1.91809 0.382683 0.794497
-1.84776 1.22465e-16 0.765367
-2 0 0
-1.91809 0.382683 0.794497
-2.07612 0.382683 2.54251e-16
-1.46804 0.382683 1.46804
-1.91809 0.382683 0.794497
-1.62132 0.707107 1.62132
-2.11836 0.707107 0.877452
-1.91809 0.382683 0.794497
-2.07612 0.382683 2.54251e-16
-2.11836 0.707107 0.877452
-2.29289 0.707107 2.80798e-16
1.40399e-16 0.707107 2.29289
-0.877452 0.707107 2.11836
1.60264e-16 0.92388 2.61732
-1.0016 0.92388 2.41809
-0.877452 0.707107 2.11836
-1.62132 0.707107 1.62132
-1.0016 0.92388 2.41809
-1.85072 0.92388 1.85072
1.60264e-16 0.92388 2.61732
-1.0016 0.92388 2.41809
0 1 3
-1.14805 1 2.77164
-1.0016 0.92388 2.41809
-1.85072 0.92388 1.85072
-1.14805 1 2.77164
-2.12132 1 2.12132
-1.62132 0.707107 1.62132
-2.11836 0.707107 0.877452
-1.85072 0.92388 1.85072
-2.41809 0.92388 1.0016
-2.11836 0.707107 0.877452
-2.29289 0.707107 2.80798e-16
-2.41809 0.92388 1.0016
-2.61732 0.92388 3.20529e-16
-1.85072 0.92388 1.85072
-2.41809 0.92388 1.0016
-2.12132 1 2.12132
-2.77164 1 1.14805
-2.41809 0.92388 1.0016
-2.61732 0.92388 3.20529e-16
-2.77164 1 1.14805
-3 1 0
0 -1 3
-1.14805 -1 2.77164
1.60264e-16 -0.92388 2.61732
-1.0016 -0.92388 2.41809
-1.14805 -1 2.77164
-2.12132 -1 2.12132
-1.0016 -0.92388 2.41809
-1.85072 -0.92388 1.85072
1.60264e-16 -0.92388 2.61732
-1.0016 -0.92388 2.41809
1.40399e-16 -0.707107 2.29289
-0.877452 -0.707107 2.11836
-1.0016 -0.92388 2.41809
-1.85072 -0.92388 1.85072
-0.877452 -0.707107 2.11836
-1.62132 -0.707107 1.62132
-2.12132 -1 2.12132
-2.77164 -1 1.14805
-1.85072 -0.92388 1.85072
-2.41809 -0.92388 1.0016
-2.77164 -1 1.14805
-3 -1 0
-2.41809 -0.92388 1.0016
-2.61732 -0.92388 3.20529e-16
-1.85072 -0.92388 1.85072
-2.41809 -0.92388 1.0016
-1.62132 -0.707107 1.62132
-2.11836 -0.707107 0.877452
-2.41809 -0.92388 1.0016
-2.61732 -0.92388 3.20529e-16
-2.11836 -0.707107 0.877452
-2.29289 -0.707107 2.80798e-16
1.40399e-16 -0.707107 2.29289
-0.877452 -0.707107 2.11836
1.27126e-16 -0.382683 2.07612
-0.794497 -0.382683 1.91809
-0.877452 -0.707107 2.11836
-1.62132 -0.707107 1.62132
-0.794497 -0.382683 1.91809
-1.46804 -0.382683 1.46804
1.27126e-16 -0.382683 2.07612
-0.794497 -0.382683 1.91809
0 0 2
-0.765367 1.22465e-16 1.84776
-0.794497 -0.382683 1.91809
-1.46804 -0.382683 1.46804
-0.765367 1.22465e-16 1.84776
-1.41421 1.22465e-16 1.41421
-1.62132 -0.707107 1.62132
-2.11836 -0.707107 0.877452
-1.46804 -0.382683 1.46804
-1.91809 -0.382683 0.794497
-2.11836 -0.707107 0.877452
-2.29289 -0.707107 2.80798e-16
-1.91809 -0.382683 0.794497
-2.07612 -0.382683 2.54251e-16
-1.46804 -0.382683 1.46804
-1.91809 -0.382683 0.794497
-1.41421 1.22465e-16 1.41421
-1.84776 1.22465e-16 0.765367
-1.91809 -0.382683 0.794497
-2.07612 -0.382683 2.54251e-16
-1.84776 1.22465e-16 0.765367
-2 0 0
0 0 4
-1.53073 0 3.69552
2.40268e-16 -0.382683 3.92388
-1.5016 -0.382683 3.62519
-1.53073 0 3.69552
-2.82843 0 2.82843
-1.5016 -0.382683 3.62519
-2.7746 -0.382683 2.7746
2.40268e-16 -0.382683 3.92388
-1.5016 -0.382683 3.62519
2.26995e-16 -0.707107 3.70711
-1.41865 -0.707107 3.42492
-1.5016 -0.382683 3.62519
-2.7746 -0.382683 2.7746
-1.41865 -0.707107 3.42492
-2.62132 -0.707107 2.62132
-2.82843 0 2.82843
-3.69552 0 1.53073
-2.7746 -0.382683 2.7746
-3.62519 -0.382683 1.5016
-3.69552 0 1.53073
-4 0 0
-3.62519 -0.382683 1.5016
-3.92388 -0.382683 4.80537e-16
-2.7746 -0.382683 2.7746
-3.62519 -0.382683 1.5016
-2.62132 -0.707107 2.62132
-3.42492 -0.707107 1.41865
[...]
POINT_DATA 1024
SCALARS U double 1
LOOKUP_TABLE default
0.0744829 0.074712 0.103127 0.103437 0.074712 0.0725307 0.103437 0.10136 0.103127 0.103437 0.131162 0.131517 0.103437 0.10136 0.131517 0.130179 0.0725307 0.0573091 0.10136 0.0839979 0.0573091 0.0258893 0.0839979 0.0433668 0.10136 0.0839979 0.130179 0.112777 0.0839979 0.0433668 0.112777 0.0637814 0.131162 0.131517 0.147974 0.148272 0.131517 0.130179 0.148272 0.147952 0.147974 0.148272 0.152055 0.152203 0.148272 0.147952 0.152203 0.152792 0.130179 0.112777 0.147952 0.131837 0.112777 0.0637814 0.131837 0.0767934 0.147952 0.131837 0.152792 0.138547 0.131837 0.0767934 0.138547 0.0797027 0.0142417 0.0142732 0.017565 0.0176315 0.0142732 0.0142681 0.0176315 0.0172353 0.017565 0.0176315 0.0301108 0.0302092 0.0176315 0.0172353 0.0302092 0.0292806 0.0142681 0.0112899 0.0172353 0.0131277 0.0112899 0.00299227 0.0131277 0.00460539 0.0172353 0.0131277 0.0292806 0.0221365 0.0131277 0.00460539 0.0221365 0.00871175 0.0301108 0.0302092 0.0507686 0.0509331 0.0302092 0.0292806 0.0509331 0.0492554 0.0507686 0.0509331 0.0744829 0.074712 0.0509331 0.0492554 0.074712 0.0725307 0.0292806 0.0221365 0.0492554 0.0380305 0.0221365 0.00871175 0.0380305 0.0152393 0.0492554 0.0380305 0.0725307 0.0573091 0.0380305 0.0152393 0.0573091 0.0258893 0.0750791 0.0748102 0.0542389 0.054034 0.0748102 0.0762374 0.054034 0.0551614 0.0542389 0.054034 0.0346293 0.0345046 0.054034 0.0551614 0.0345046 0.0352941 0.0762374 0.0689739 0.0551614 0.0493429 0.0689739 0.0160652 0.0493429 0.00808916 0.0551614 0.0493429 0.0352941 0.0306994 0.0493429 0.00808916 0.0306994 0.00496653 0.0346293 0.0345046 0.0206645 0.0206358 0.0345046 0.0352941 0.0206358 0.0210053 0.0206645 0.0206358 0.0142417 0.0142732 0.0206358 0.0210053 0.0142732 0.0142681 0.0352941 0.0306994 0.0210053 0.0176414 0.0306994 0.00496653 0.0176414 0.00328374 0.0210053 0.0176414 0.0142681 0.0112899 0.0176414 0.00328374 0.0112899 0.00299227 0.152055 0.152203 0.145677 0.145646 0.152203 0.152792 0.145646 0.146844 0.145677 0.145646 0.127339 0.127161 0.145646 0.146844 0.127161 0.128666 0.152792 0.138547 0.146844 0.134594 0.138547 0.0797027 0.134594 0.0735569 0.146844 0.134594 0.128666 0.118272 0.134594 0.0735569 0.118272 0.0565929 0.127339 0.127161 0.100512 0.10025 0.127161 0.128666 0.10025 0.101813 0.100512 0.10025 0.0750791 0.0748102 0.10025 0.101813 0.0748102 0.0762374 0.128666 0.118272 0.101813 0.0930752 0.118272 0.0565929 0.0930752 0.0333919 0.101813 0.0930752 0.0762374 0.0689739 0.0930752 0.0333919 0.0689739 0.0160652 0.0258893 0.00496064 0.0433668 0.007905 0.00496064 -3.87444e-05 0.007905 -0.00028844 0.0433668 0.007905 0.0637814 0.00977124 0.007905 -0.00028844 0.00977124 -0.000754419 -3.87444e-05 -6.42085e-05 -0.00028844 -5.35697e-05 -6.42085e-05 9.3117e-06 -5.35697e-05 1.01185e-05 -0.00028844 -5.35697e-05 -0.000754419 2.01514e-05 -5.35697e-05 1.01185e-05 2.01514e-05 -4.3634e-06 0.0637814 0.00977124 0.0767934 0.00907327 0.00977124 -0.000754419 0.00907327 -0.0010483 0.0767934 0.00907327 0.0797027 0.00652936 0.00907327 -0.0010483 0.00652936 -0.00100588 -0.000754419 2.01514e-05 -0.0010483 0.000103245 2.01514e-05 -4.3634e-06 0.000103245 -2.754e-05 -0.0010483 0.000103245 -0.00100588 0.000145192 0.000103245 -2.754e-05 0.000145192 -4.47863e-05 0.00299227 -1.07049e-05 0.00460539 0.000401072 -1.07049e-05 -2.3738e-05 0.000401072 -5.79417e-05 0.00460539 0.000401072 0.00871175 0.00116219 0.000401072 -5.79417e-05 0.00116219 -6.76749e-05 -2.3738e-05 3.8479e-06 -5.79417e-05 -5.42608e-07 3.8479e-06 -1.18784e-06 -5.42608e-07 1.59935e-06 -5.79417e-05 -5.42608e-07 -6.76749e-05 -1.32851e-05 -5.42608e-07 1.59935e-06 -1.32851e-05 4.15813e-06 0.00871175 0.00116219 0.0152393 0.00263511 0.00116219 -6.76749e-05 0.00263511 -4.45649e-05 0.0152393 0.00263511 0.0258893 0.00496064 0.00263511 -4.45649e-05 0.00496064 -3.87444e-05 -6.76749e-05 -1.32851e-05 -4.45649e-05 -3.5195e-05 -1.32851e-05 4.15813e-06 -3.5195e-05 4.98617e-06 -4.45649e-05 -3.5195e-05 -3.87444e-05 -6.42085e-05 -3.5195e-05 4.98617e-06 -6.42085e-05 9.3117e-06 0.0160652 -0.000305577 0.00808916 -0.000539907 -0.000305577 5.8055e-06 -0.000539907 6.83077e-05 0.00808916 -0.000539907 0.00496653 -0.000544686 -0.000539907 6.83077e-05 -0.000544686 7.13434e-05 5.8055e-06 8.60679e-06 6.83077e-05 -3.94802e-06 8.60679e-06 -5.43692e-06 -3.94802e-06 -1.81766e-06 6.83077e-05 -3.94802e-06 7.13434e-05 -5.13303e-06 -3.94802e-06 -1.81766e-06 -5.13303e-06 -1.31756e-06 0.00496653 -0.000544686 0.00328374 -0.00030926 -0.000544686 7.13434e-05 -0.00030926 2.30721e-05 0.00328374 -0.00030926 0.00299227 -1.07049e-05 -0.00030926 2.30721e-05 -1.07049e-05 -2.3738e-05 7.13434e-05 -5.13303e-06 2.30721e-05 1.81165e-06 -5.13303e-06 -1.31756e-06 1.81165e-06 -2.64801e-06 2.30721e-05 1.81165e-06 -2.3738e-05 3.8479e-06 1.81165e-06 -2.64801e-06 3.8479e-06 -1.18784e-06 0.0797027 0.00652936 0.0735569 0.00361165 0.00652936 -0.00100588 0.00361165 -0.000728705 0.0735569 0.00361165 0.0565929 0.00139306 0.00361165 -0.000728705 0.00139306 -0.000391324 -0.00100588 0.000145192 -0.000728705 0.000136773 0.000145192 -4.47863e-05 0.000136773 -4.8654e-05 -0.000728705 0.000136773 -0.000391324 9.15314e-05 0.000136773 -4.8654e-05 9.15314e-05 -3.64177e-05 0.0565929 0.00139306 0.0333919 0.000230403 0.00139306 -0.000391324 0.000230403 -0.000140577 0.0333919 0.000230403 0.0160652 -0.000305577 0.000230403 -0.000140577 -0.000305577 5.8055e-06 -0.000391324 9.15314e-05 -0.000140577 4.168e-05 9.15314e-05 -3.64177e-05 4.168e-05 -1.7938e-05 -0.000140577 4.168e-05 5.8055e-06 8.60679e-06 4.168e-05 -1.7938e-05 8.60679e-06 -5.43692e-06 9.3117e-06 -6.42117e-05 1.01185e-05 -5.35726e-05 -6.42117e-05 -3.87477e-05 -5.35726e-05 -0.000288456 1.01185e-05 -5.35726e-05 -4.3634e-06 2.01472e-05 -5.35726e-05 -0.000288456 2.01472e-05 -0.000754433 -3.87477e-05 0.00496063 -0.000288456 0.007905 0.00496063 0.0258893 0.007905 0.0433668 -0.000288456 0.007905 -0.000754433 0.00977123 0.007905 0.0433668 0.00977123 0.0637814 -4.3634e-06 2.01472e-05 -2.754e-05 0.000103247 2.01472e-05 -0.000754433 0.000103247 -0.0010483 -2.754e-05 0.000103247 -4.47863e-05 0.000145195 0.000103247 -0.0010483 0.000145195 -0.00100587 -0.000754433 0.00977123 -0.0010483 0.00907326 0.00977123 0.0637814 0.00907326 0.0767934 -0.0010483 0.00907326 -0.00100587 0.00652935 0.00907326 0.0767934 0.00652935 0.0797027 -1.18784e-06 3.84846e-06 1.59935e-06 -5.40219e-07 3.84846e-06 -2.37347e-05 -5.40219e-07 -5.79441e-05 1.59935e-06 -5.40219e-07 4.15813e-06 -1.32857e-05 -5.40219e-07 -5.79441e-05 -1.32857e-05 -6.76699e-05 -2.37347e-05 -1.07032e-05 -5.79441e-05 0.000401086 -1.07032e-05 0.00299227 0.000401086 0.00460539 -5.79441e-05 0.000401086 -6.76699e-05 0.0011622 0.000401086 0.00460539 0.0011622 0.00871175 4.15813e-06 -1.32857e-05 4.98617e-06 -3.51904e-05 -1.32857e-05 -6.76699e-05 -3.51904e-05 -4.45682e-05 4.98617e-06 -3.51904e-05 9.3117e-06 -6.42117e-05 -3.51904e-05 -4.45682e-05 -6.42117e-05 -3.87477e-05 -6.76699e-05 0.0011622 -4.45682e-05 0.00263512 0.0011622 0.00871175 0.00263512 0.0152393 -4.45682e-05 0.00263512 -3.87477e-05 0.00496063 0.00263512 0.0152393 0.00496063 0.0258893 -5.43692e-06 8.60468e-06 -1.81766e-06 -3.94347e-06 8.60468e-06 5.80899e-06 -3.94347e-06 6.83044e-05 -1.81766e-06 -3.94347e-06 -1.31756e-06 -5.13485e-06 -3.94347e-06 6.83044e-05 -5.13485e-06 7.13486e-05 5.80899e-06 -0.000305584 6.83044e-05 -0.000539907 -0.000305584 0.0160652 -0.000539907 0.00808916 6.83044e-05 -0.000539907 7.13486e-05 -0.000544696 -0.000539907 0.00808916 -0.000544696 0.00496654 -1.31756e-06 -5.13485e-06 -2.64801e-06 1.81268e-06 -5.13485e-06 7.13486e-05 1.81268e-06 2.30734e-05 -2.64801e-06 1.81268e-06 -1.18784e-06 3.84846e-06 1.81268e-06 2.30734e-05 3.84846e-06 -2.37347e-05 7.13486e-05 -0.000544696 2.30734e-05 -0.00030926 -0.000544696 0.00496654 -0.00030926 0.00328374 2.30734e-05 -0.00030926 -2.37347e-05 -1.07032e-05 -0.00030926 0.00328374 -1.07032e-05 0.00299227 -4.47863e-05 0.000145195 -4.8654e-05 0.000136779 0.000145195 -0.00100587 0.000136779 -0.000728697 -4.8654e-05 0.000136779 -3.64177e-05 9.15319e-05 0.000136779 -0.000728697 9.15319e-05 -0.000391308 -0.00100587 0.00652935 -0.000728697 0.00361165 0.00652935 0.0797027 0.00361165 0.0735569 -0.000728697 0.00361165 -0.000391308 0.00139306 0.00361165 0.0735569 0.00139306 0.0565929 -3.64177e-05 9.15319e-05 -1.7938e-05 4.16828e-05 9.15319e-05 -0.000391308 4.16828e-05 -0.000140575 -1.7938e-05 4.16828e-05 -5.43692e-06 8.60468e-06 4.16828e-05 -0.000140575 8.60468e-06 5.80899e-06 -0.000391308 0.00139306 -0.000140575 0.000230403 0.00139306 0.0565929 0.000230403 0.0333919 -0.000140575 0.000230403 5.80899e-06 -0.000305584 0.000230403 0.0333919 -0.000305584 0.0160652 0.0258893 0.0573091 0.0433668 0.0839979 0.0573091 0.0725307 0.0839979 0.10136 0.0433668 0.0839979 0.0637814 0.112777 0.0839979 0.10136 0.112777 0.130179 0.0725307 0.074712 0.10136 0.103437 0.074712 0.0744829 0.103437 0.103127 0.10136 0.103437 0.130179 0.131517 0.103437 0.103127 0.131517 0.131162 0.0637814 0.112777 0.0767934 0.131837 0.112777 0.130179 0.131837 0.147952 0.0767934 0.131837 0.0797027 0.138547 0.131837 0.147952 0.138547 0.152792 0.130179 0.131517 0.147952 0.148272 0.131517 0.131162 0.148272 0.147974 0.147952 0.148272 0.152792 0.152203 0.148272 0.147974 0.152203 0.152055 0.00299227 0.0112899 0.00460539 0.0131277 0.0112899 0.0142681 0.0131277 0.0172353 0.00460539 0.0131277 0.00871175 0.0221365 0.0131277 0.0172353 0.0221365 0.0292806 0.0142681 0.0142732 0.0172353 0.0176315 0.0142732 0.0142417 0.0176315 0.017565 0.0172353 0.0176315 0.0292806 0.0302092 0.0176315 0.017565 0.0302092 0.0301108 0.00871175 0.0221365 0.0152393 0.0380305 0.0221365 0.0292806 0.0380305 0.0492554 0.0152393 0.0380305 0.0258893 0.0573091 0.0380305 0.0492554 0.0573091 0.0725307 0.0292806 0.0302092 0.0492554 0.0509331 0.0302092 0.0301108 0.0509331 0.0507686 0.0492554 0.0509331 0.0725307 0.074712 0.0509331 0.0507686 0.074712 0.0744829 0.0160652 0.0689739 0.00808916 0.049343 0.0689739 0.0762374 0.049343 0.0551614 0.00808916 0.049343 0.00496654 0.0306994 0.049343 0.0551614 0.0306994 0.0352941 0.0762374 0.0748102 0.0551614 0.054034 0.0748102 0.0750791 0.054034 0.0542389 0.0551614 0.054034 0.0352941 0.0345046 0.054034 0.0542389 0.0345046 0.0346293 0.00496654 0.0306994 0.00328374 0.0176415 0.0306994 0.0352941 0.0176415 0.0210053 0.00328374 0.0176415 0.00299227 0.0112899 0.0176415 0.0210053 0.0112899 0.0142681 0.0352941 0.0345046 0.0210053 0.0206358 0.0345046 0.0346293 0.0206358 0.0206645 0.0210053 0.0206358 0.0142681 0.0142732 0.0206358 0.0206645 0.0142732 0.0142417 0.0797027 0.138547 0.0735569 0.134594 0.138547 0.152792 0.134594 0.146844 0.0735569 0.134594 0.0565929 0.118272 0.134594 0.146844 0.118272 0.128666 0.152792 0.152203 0.146844 0.145646 0.152203 0.152055 0.145646 0.145677 0.146844 0.145646 0.128666 0.127161 0.145646 0.145677 0.127161 0.127339 0.0565929 0.118272 0.0333919 0.0930752 0.118272 0.128666 0.0930752 0.101813 0.0333919 0.0930752 0.0160652 0.0689739 0.0930752 0.101813 0.0689739 0.0762374 0.128666 0.127161 0.101813 0.10025 0.127161 0.127339 0.10025 0.100512 0.101813 0.10025 0.0762374 0.0748102 0.10025 0.100512 0.0748102 0.0750791 
