# vtk DataFile Version 3.0
#This file was generated by the deal.II library on 2023/3/8 at 18:39:23
ASCII
DATASET UNSTRUCTURED_GRID

FIELD FieldData 2
CYCLE 1 1 int
106
TIME 1 1 double
0.212
POINTS 1024 double
2 0 0
1.84776 1.22465e-16 0.765367
2.07612 0.382683 0
1.91809 0.382683 0.794497
1.84776 1.22465e-16 0.765367
1.41421 1.22465e-16 1.41421
1.91809 0.382683 0.794497
1.46804 0.382683 1.46804
2.07612 0.382683 0
1.91809 0.382683 0.794497
2.29289 0.707107 0
2.11836 0.707107 0.877452
1.91809 0.382683 0.794497
1.46804 0.382683 1.46804
2.11836 0.707107 0.877452
1.62132 0.707107 1.62132
1.41421 1.22465e-16 1.41421
0.765367 1.22465e-16 1.84776
1.46804 0.382683 1.46804
0.794497 0.382683 1.91809
0.765367 1.22465e-16 1.84776
0 0 2
0.794497 0.382683 1.91809
1.27126e-16 0.382683 2.07612
1.46804 0.382683 1.46804
0.794497 0.382683 1.91809
1.62132 0.707107 1.62132
0.877452 0.707107 2.11836
0.794497 0.382683 1.91809
1.27126e-16 0.382683 2.07612
0.877452 0.707107 2.11836
1.40399e-16 0.707107 2.29289
2.29289 0.707107 0
2.11836 0.707107 0.877452
2.61732 0.92388 0
2.41809 0.92388 1.0016
2.11836 0.707107 0.877452
1.62132 0.707107 1.62132
2.41809 0.92388 1.0016
1.85072 0.92388 1.85072
2.61732 0.92388 0
2.41809 0.92388 1.0016
3 1 0
2.77164 1 1.14805
2.41809 0.92388 1.0016
1.85072 0.92388 1.85072
2.77164 1 1.14805
2.12132 1 2.12132
1.62132 0.707107 1.62132
0.877452 0.707107 2.11836
1.85072 0.92388 1.85072
1.0016 0.92388 2.41809
0.877452 0.707107 2.11836
1.40399e-16 0.707107 2.29289
1.0016 0.92388 2.41809
1.60264e-16 0.92388 2.61732
1.85072 0.92388 1.85072
1.0016 0.92388 2.41809
2.12132 1 2.12132
1.14805 1 2.77164
1.0016 0.92388 2.41809
1.60264e-16 0.92388 2.61732
1.14805 1 2.77164
0 1 3
3 -1 0
2.77164 -1 1.14805
2.61732 -0.92388 0
2.41809 -0.92388 1.0016
2.77164 -1 1.14805
2.12132 -1 2.12132
2.41809 -0.92388 1.0016
1.85072 -0.92388 1.85072
2.61732 -0.92388 0
2.41809 -0.92388 1.0016
2.29289 -0.707107 0
2.11836 -0.707107 0.877452
2.41809 -0.92388 1.0016
1.85072 -0.92388 1.85072
2.11836 -0.707107 0.877452
1.62132 -0.707107 1.62132
2.12132 -1 2.12132
1.14805 -1 2.77164
1.85072 -0.92388 1.85072
1.0016 -0.92388 2.41809
1.14805 -1 2.77164
0 -1 3
1.0016 -0.92388 2.41809
1.60264e-16 -0.92388 2.61732
1.85072 -0.92388 1.85072
1.0016 -0.92388 2.41809
1.62132 -0.707107 1.62132
0.877452 -0.707107 2.11836
1.0016 -0.92388 2.41809
1.60264e-16 -0.92388 2.61732
0.877452 -0.707107 2.11836
1.40399e-16 -0.707107 2.29289
2.29289 -0.707107 0
2.11836 -0.707107 0.877452
2.07612 -0.382683 0
1.91809 -0.382683 0.794497
2.11836 -0.707107 0.877452
1.62132 -0.707107 1.62132
1.91809 -0.382683 0.794497
1.46804 -0.382683 1.46804
2.07612 -0.382683 0
1.91809 -0.382683 0.794497
2 0 0
1.84776 1.22465e-16 0.765367
1.91809 -0.382683 0.794497
1.46804 -0.382683 1.46804
1.84776 1.22465e-16 0.765367
1.41421 1.22465e-16 1.41421
1.62132 -0.707107 1.62132
0.877452 -0.707107 2.11836
1.46804 -0.382683 1.46804
0.794497 -0.382683 1.91809
0.877452 -0.707107 2.11836
1.40399e-16 -0.707107 2.29289
0.794497 -0.382683 1.91809
1.27126e-16 -0.382683 2.07612
1.46804 -0.382683 1.46804
0.794497 -0.382683 1.91809
1.41421 1.22465e-16 1.41421
0.765367 1.22465e-16 1.84776
0.794497 -0.382683 1.91809
1.27126e-16 -0.382683 2.07612
0.765367 1.22465e-16 1.84776
0 0 2
4 0 0
3.69552 0 1.53073
3.92388 -0.382683 0
3.62519 -0.382683 1.5016
3.69552 0 1.53073
2.82843 0 2.82843
3.62519 -0.382683 1.5016
2.7746 -0.382683 2.7746
3.92388 -0.382683 0
3.62519 -0.382683 1.5016
3.70711 -0.707107 0
3.42492 -0.707107 1.41865
3.62519 -0.382683 1.5016
2.7746 -0.382683 2.7746
3.42492 -0.707107 1.41865
2.62132 -0.707107 2.62132
2.82843 0 2.82843
1.53073 0 3.69552
2.7746 -0.382683 2.7746
1.5016 -0.382683 3.62519
1.53073 0 3.69552
0 0 4
1.5016 -0.382683 3.62519
2.40268e-16 -0.382683 3.92388
2.7746 -0.382683 2.7746
1.5016 -0.382683 3.62519
2.62132 -0.707107 2.62132
1.41865 -0.707107 3.42492
1.5016 -0.382683 3.62519
2.40268e-16 -0.382683 3.92388
1.41865 -0.707107 3.42492
2.26995e-16 -0.707107 3.70711
3.70711 -0.707107 0
3.42492 -0.707107 1.41865
3.38268 -0.92388 0
3.12519 -0.92388 1.2945
3.42492 -0.707107 1.41865
2.62132 -0.707107 2.62132
3.12519 -0.92388 1.2945
2.39192 -0.92388 2.39192
3.38268 -0.92388 0
3.12519 -0.92388 1.2945
3 -1 0
2.77164 -1 1.14805
3.12519 -0.92388 1.2945
2.39192 -0.92388 2.39192
2.77164 -1 1.14805
2.12132 -1 2.12132
2.62132 -0.707107 2.62132
1.41865 -0.707107 3.42492
2.39192 -0.92388 2.39192
1.2945 -0.92388 3.12519
1.41865 -0.707107 3.42492
2.26995e-16 -0.707107 3.70711
1.2945 -0.92388 3.12519
2.0713e-16 -0.92388 3.38268
2.39192 -0.92388 2.39192
1.2945 -0.92388 3.12519
2.12132 -1 2.12132
1.14805 -1 2.77164
1.2945 -0.92388 3.12519
2.0713e-16 -0.92388 3.38268
1.14805 -1 2.77164
0 -1 3
3 1 0
2.77164 1 1.14805
3.38268 0.92388 0
3.12519 0.92388 1.2945
2.77164 1 1.14805
2.12132 1 2.12132
3.12519 0.92388 1.2945
2.39192 0.92388 2.39192
3.38268 0.92388 0
3.12519 0.92388 1.2945
3.70711 0.707107 0
3.42492 0.707107 1.41865
3.12519 0.92388 1.2945
2.39192 0.92388 2.39192
3.42492 0.707107 1.41865
2.62132 0.707107 2.62132
2.12132 1 2.12132
1.14805 1 2.77164
2.39192 0.92388 2.39192
1.2945 0.92388 3.12519
1.14805 1 2.77164
0 1 3
1.2945 0.92388 3.12519
2.0713e-16 0.92388 3.38268
2.39192 0.92388 2.39192
1.2945 0.92388 3.12519
2.62132 0.707107 2.62132
1.41865 0.707107 3.42492
1.2945 0.92388 3.12519
2.0713e-16 0.92388 3.38268
1.41865 0.707107 3.42492
2.26995e-16 0.707107 3.70711
3.70711 0.707107 0
3.42492 0.707107 1.41865
3.92388 0.382683 0
3.62519 0.382683 1.5016
3.42492 0.707107 1.41865
2.62132 0.707107 2.62132
3.62519 0.382683 1.5016
2.7746 0.382683 2.7746
3.92388 0.382683 0
3.62519 0.382683 1.5016
4 0 0
3.69552 0 1.53073
3.62519 0.382683 1.5016
2.7746 0.382683 2.7746
3.69552 0 1.53073
2.82843 0 2.82843
2.62132 0.707107 2.62132
1.41865 0.707107 3.42492
2.7746 0.382683 2.7746
1.5016 0.382683 3.62519
1.41865 0.707107 3.42492
2.26995e-16 0.707107 3.70711
1.5016 0.382683 3.62519
2.40268e-16 0.382683 3.92388
2.7746 0.382683 2.7746
1.5016 0.382683 3.62519
2.82843 0 2.82843
1.53073 0 3.69552
1.5016 0.382683 3.62519
2.40268e-16 0.382683 3.92388
1.53073 0 3.69552
0 0 4
0 0 2
-0.765367 1.22465e-16 1.84776
1.27126e-16 0.382683 2.07612
-0.794497 0.382683 1.91809
-0.765367 1.22465e-16 1.84776
-1.41421 1.22465e-16 1.41421
-0.794497 0.382683 1.91809
-1.46804 0.382683 1.46804
1.27126e-16 0.382683 2.07612
-0.794497 0.382683 1.91809
1.40399e-16 0.707107 2.29289
-0.877452 0.707107 2.11836
-0.794497 0.382683 1.91809
-1.46804 0.382683 1.46804
-0.877452 0.707107 2.11836
-1.62132 0.707107 1.62132
-1.41421 1.22465e-16 1.41421
-1.84776 1.22465e-16 0.765367
-1.46804 0.382683 1.46804
-1.91809 0.382683 0.794497
-1.84776 1.22465e-16 0.765367
-2 0 0
-1.91809 0.382683 0.794497
-2.07612 0.382683 2.54251e-16
-1.46804 0.382683 1.46804
-1.91809 0.382683 0.794497
-1.62132 0.707107 1.62132
-2.11836 0.707107 0.877452
-1.91809 0.382683 0.794497
-2.07612 0.382683 2.54251e-16
-2.11836 0.707107 0.877452
-2.29289 0.707107 2.80798e-16
1.40399e-16 0.707107 2.29289
-0.877452 0.707107 2.11836
1.60264e-16 0.92388 2.61732
-1.0016 0.92388 2.41809
-0.877452 0.707107 2.11836
-1.62132 0.707107 1.62132
-1.0016 0.92388 2.41809
-1.85072 0.92388 1.85072
1.60264e-16 0.92388 2.61732
-1.0016 0.92388 2.41809
0 1 3
-1.14805 1 2.77164
-1.0016 0.92388 2.41809
-1.85072 0.92388 1.85072
-1.14805 1 2.77164
-2.12132 1 2.12132
-1.62132 0.707107 1.62132
-2.11836 0.707107 0.877452
-1.85072 0.92388 1.85072
-2.41809 0.92388 1.0016
-2.11836 0.707107 0.877452
-2.29289 0.707107 2.80798e-16
-2.41809 0.92388 1.0016
-2.61732 0.92388 3.20529e-16
-1.85072 0.92388 1.85072
-2.41809 0.92388 1.0016
-2.12132 1 2.12132
-2.77164 1 1.14805
-2.41809 0.92388 1.0016
-2.61732 0.92388 3.20529e-16
-2.77164 1 1.14805
-3 1 0
0 -1 3
-1.14805 -1 2.77164
1.60264e-16 -0.92388 2.61732
-1.0016 -0.92388 2.41809
-1.14805 -1 2.77164
-2.12132 -1 2.12132
-1.0016 -0.92388 2.41809
-1.85072 -0.92388 1.85072
1.60264e-16 -0.92388 2.61732
-1.0016 -0.92388 2.41809
1.40399e-16 -0.707107 2.29289
-0.877452 -0.707107 2.11836
-1.0016 -0.92388 2.41809
-1.85072 -0.92388 1.85072
-0.877452 -0.707107 2.11836
-1.62132 -0.707107 1.62132
-2.12132 -1 2.12132
-2.77164 -1 1.14805
-1.85072 -0.92388 1.85072
-2.41809 -0.92388 1.0016
-2.77164 -1 1.14805
-3 -1 0
-2.41809 -0.92388 1.0016
-2.61732 -0.92388 3.20529e-16
-1.85072 -0.92388 1.85072
-2.41809 -0.92388 1.0016
-1.62132 -0.707107 1.62132
-2.11836 -0.707107 0.877452
-2.41809 -0.92388 1.0016
-2.61732 -0.92388 3.20529e-16
-2.11836 -0.707107 0.877452
-2.29289 -0.707107 2.80798e-16
1.40399e-16 -0.707107 2.29289
-0.877452 -0.707107 2.11836
1.27126e-16 -0.382683 2.07612
-0.794497 -0.382683 1.91809
-0.877452 -0.707107 2.11836
-1.62132 -0.707107 1.62132
-0.794497 -0.382683 1.91809
-1.46804 -0.382683 1.46804
1.27126e-16 -0.382683 2.07612
-0.794497 -0.382683 1.91809
0 0 2
-0.765367 1.22465e-16 1.84776
-0.794497 -0.382683 1.91809
-1.46804 -0.382683 1.46804
-0.765367 1.22465e-16 1.84776
-1.41421 1.22465e-16 1.41421
-1.62132 -0.707107 1.62132
-2.11836 -0.707107 0.877452
-1.46804 -0.382683 1.46804
-1.91809 -0.382683 0.794497
-2.11836 -0.707107 0.877452
-2.29289 -0.707107 2.80798e-16
-1.91809 -0.382683 0.794497
-2.07612 -0.382683 2.54251e-16
-1.46804 -0.382683 1.46804
-1.91809 -0.382683 0.794497
-1.41421 1.22465e-16 1.41421
-1.84776 1.22465e-16 0.765367
-1.91809 -0.382683 0.794497
-2.07612 -0.382683 2.54251e-16
-1.84776 1.22465e-16 0.765367
-2 0 0
0 0 4
-1.53073 0 3.69552
2.40268e-16 -0.382683 3.92388
-1.5016 -0.382683 3.62519
-1.53073 0 3.69552
-2.82843 0 2.82843
-1.5016 -0.382683 3.62519
-2.7746 -0.382683 2.7746
2.40268e-16 -0.382683 3.92388
-1.5016 -0.382683 3.62519
2.26995e-16 -0.707107 3.70711
-1.41865 -0.707107 3.42492
-1.5016 -0.382683 3.62519
-2.7746 -0.382683 2.7746
-1.41865 -0.707107 3.42492
-2.62132 -0.707107 2.62132
-2.82843 0 2.82843
-3.69552 0 1.53073
-2.7746 -0.382683 2.7746
-3.62519 -0.382683 1.5016
-3.69552 0 1.53073
-4 0 0
-3.62519 -0.382683 1.5016
-3.92388 -0.382683 4.80537e-16
-2.7746 -0.382683 2.7746
-3.62519 -0.382683 1.5016
-2.62132 -0.707107 2.62132
-3.42492 -0.707107 1.41865
[...]
POINT_DATA 1024
SCALARS U double 1
LOOKUP_TABLE default
0.0481072 0.0485008 0.0634747 0.0638924 0.0485008 0.0477576 0.0638924 0.0632576 0.0634747 0.0638924 0.0794662 0.0798383 0.0638924 0.0632576 0.0798383 0.0795166 0.0477576 0.0416201 0.0632576 0.0564386 0.0416201 0.00951715 0.0564386 0.0194804 0.0632576 0.0564386 0.0795166 0.0733239 0.0564386 0.0194804 0.0733239 0.0319923 0.0794662 0.0798383 0.0891951 0.0894569 0.0798383 0.0795166 0.0894569 0.0894884 0.0891951 0.0894569 0.0917731 0.0918973 0.0894569 0.0894884 0.0918973 0.0921889 0.0795166 0.0733239 0.0894884 0.0844764 0.0733239 0.0319923 0.0844764 0.0402386 0.0894884 0.0844764 0.0921889 0.0884058 0.0844764 0.0402386 0.0884058 0.0423545 0.00429059 0.00428158 0.00629212 0.00632933 0.00428158 0.00437847 0.00632933 0.00636967 0.00629212 0.00632933 0.0130278 0.0131344 0.00632933 0.00636967 0.0131344 0.0130952 0.00437847 0.003687 0.00636967 0.00495053 0.003687 0.000608114 0.00495053 0.00136173 0.00636967 0.00495053 0.0130952 0.00981596 0.00495053 0.00136173 0.00981596 0.00317187 0.0130278 0.0131344 0.0364354 0.0367628 0.0131344 0.0130952 0.0367628 0.0361168 0.0364354 0.0367628 0.0481072 0.0485008 0.0367628 0.0361168 0.0485008 0.0477576 0.0130952 0.00981596 0.0361168 0.0321201 0.00981596 0.00317187 0.0321201 0.00445754 0.0361168 0.0321201 0.0477576 0.0416201 0.0321201 0.00445754 0.0416201 0.00951715 0.0485932 0.0485177 0.0381856 0.0381706 0.0485177 0.0487578 0.0381706 0.0382229 0.0381856 0.0381706 0.0152356 0.0151091 0.0381706 0.0382229 0.0151091 0.0155254 0.0487578 0.0484099 0.0382229 0.038455 0.0484099 0.00327003 0.038455 -0.000222089 0.0382229 0.038455 0.0155254 0.0141587 0.038455 -0.000222089 0.0141587 0.000946727 0.0152356 0.0151091 0.00777566 0.00772018 0.0151091 0.0155254 0.00772018 0.00793283 0.00777566 0.00772018 0.00429059 0.00428158 0.00772018 0.00793283 0.00428158 0.00437847 0.0155254 0.0141587 0.00793283 0.00712105 0.0141587 0.000946727 0.00712105 0.000647018 0.00793283 0.00712105 0.00437847 0.003687 0.00712105 0.000647018 0.003687 0.000608114 0.0917731 0.0918973 0.0885322 0.0885388 0.0918973 0.0921889 0.0885388 0.0889523 0.0885322 0.0885388 0.0780885 0.078021 0.0885388 0.0889523 0.078021 0.0784455 0.0921889 0.0884058 0.0889523 0.0862876 0.0884058 0.0423545 0.0862876 0.0388077 0.0889523 0.0862876 0.0784455 0.0767302 0.0862876 0.0388077 0.0767302 0.0281371 0.0780885 0.078021 0.0625683 0.062474 0.078021 0.0784455 0.062474 0.0628353 0.0625683 0.062474 0.0485932 0.0485177 0.062474 0.0628353 0.0485177 0.0487578 0.0784455 0.0767302 0.0628353 0.0618845 0.0767302 0.0281371 0.0618845 0.0135114 0.0628353 0.0618845 0.0487578 0.0484099 0.0618845 0.0135114 0.0484099 0.00327003 0.00951715 0.000942115 0.0194804 0.00205737 0.000942115 -0.00035684 0.00205737 -0.000620326 0.0194804 0.00205737 0.0319923 0.0028353 0.00205737 -0.000620326 0.0028353 -0.000879949 -0.00035684 6.58901e-05 -0.000620326 0.000118728 6.58901e-05 -1.25837e-05 0.000118728 -2.82861e-05 -0.000620326 0.000118728 -0.000879949 0.000201663 0.000118728 -2.82861e-05 0.000201663 -6.8798e-05 0.0319923 0.0028353 0.0402386 0.00230541 0.0028353 -0.000879949 0.00230541 -0.000874587 0.0402386 0.00230541 0.0423545 0.000986953 0.00230541 -0.000874587 0.000986953 -0.000608764 -0.000879949 0.000201663 -0.000874587 0.000249555 0.000201663 -6.8798e-05 0.000249555 -0.000109392 -0.000874587 0.000249555 -0.000608764 0.000222898 0.000249555 -0.000109392 0.000222898 -0.000117367 0.000608114 -8.78202e-05 0.00136173 -6.18127e-05 -8.78202e-05 9.09979e-06 -6.18127e-05 -2.05104e-05 0.00136173 -6.18127e-05 0.00317187 -4.41065e-05 -6.18127e-05 -2.05104e-05 -4.41065e-05 -6.6888e-05 9.09979e-06 6.75922e-08 -2.05104e-05 7.83811e-06 6.75922e-08 -6.35097e-07 7.83811e-06 -3.05273e-06 -2.05104e-05 7.83811e-06 -6.6888e-05 1.71979e-05 7.83811e-06 -3.05273e-06 1.71979e-05 -4.2618e-06 0.00317187 -4.41065e-05 0.00445754 0.00043024 -4.41065e-05 -6.6888e-05 0.00043024 -0.000224706 0.00445754 0.00043024 0.00951715 0.000942115 0.00043024 -0.000224706 0.000942115 -0.00035684 -6.6888e-05 1.71979e-05 -0.000224706 4.86382e-05 1.71979e-05 -4.2618e-06 4.86382e-05 -1.2931e-05 -0.000224706 4.86382e-05 -0.00035684 6.58901e-05 4.86382e-05 -1.2931e-05 6.58901e-05 -1.25837e-05 0.00327003 -0.000261173 -0.000222089 -3.85886e-05 -0.000261173 5.31021e-05 -3.85886e-05 1.39692e-05 -0.000222089 -3.85886e-05 0.000946727 -0.0003252 -3.85886e-05 1.39692e-05 -0.0003252 8.46168e-05 5.31021e-05 -4.44485e-06 1.39692e-05 4.03132e-07 -4.44485e-06 -2.81137e-06 4.03132e-07 -2.90551e-06 1.39692e-05 4.03132e-07 8.46168e-05 -1.9874e-05 4.03132e-07 -2.90551e-06 -1.9874e-05 7.69379e-06 0.000946727 -0.0003252 0.000647018 -0.000172629 -0.0003252 8.46168e-05 -0.000172629 3.90905e-05 0.000647018 -0.000172629 0.000608114 -8.78202e-05 -0.000172629 3.90905e-05 -8.78202e-05 9.09979e-06 8.46168e-05 -1.9874e-05 3.90905e-05 -7.7099e-06 -1.9874e-05 7.69379e-06 -7.7099e-06 2.38319e-06 3.90905e-05 -7.7099e-06 9.09979e-06 6.75922e-08 -7.7099e-06 2.38319e-06 6.75922e-08 -6.35097e-07 0.0423545 0.000986953 0.0388077 -0.00016982 0.000986953 -0.000608764 -0.00016982 -0.000280135 0.0388077 -0.00016982 0.0281371 -0.000676727 -0.00016982 -0.000280135 -0.000676727 -4.11453e-05 -0.000608764 0.000222898 -0.000280135 0.000147797 0.000222898 -0.000117367 0.000147797 -9.16878e-05 -0.000280135 0.000147797 -4.11453e-05 6.73599e-05 0.000147797 -9.16878e-05 6.73599e-05 -5.12791e-05 0.0281371 -0.000676727 0.0135114 -0.000563043 -0.000676727 -4.11453e-05 -0.000563043 5.47116e-05 0.0135114 -0.000563043 0.00327003 -0.000261173 -0.000563043 5.47116e-05 -0.000261173 5.31021e-05 -4.11453e-05 6.73599e-05 5.47116e-05 1.40009e-05 6.73599e-05 -5.12791e-05 1.40009e-05 -1.78358e-05 5.47116e-05 1.40009e-05 5.31021e-05 -4.44485e-06 1.40009e-05 -1.78358e-05 -4.44485e-06 -2.81137e-06 -1.25837e-05 6.58855e-05 -2.82861e-05 0.000118723 6.58855e-05 -0.000356842 0.000118723 -0.000620328 -2.82861e-05 0.000118723 -6.8798e-05 0.000201657 0.000118723 -0.000620328 0.000201657 -0.000879951 -0.000356842 0.000942117 -0.000620328 0.00205737 0.000942117 0.00951714 0.00205737 0.0194804 -0.000620328 0.00205737 -0.000879951 0.0028353 0.00205737 0.0194804 0.0028353 0.0319923 -6.8798e-05 0.000201657 -0.000109392 0.000249552 0.000201657 -0.000879951 0.000249552 -0.000874587 -0.000109392 0.000249552 -0.000117367 0.000222901 0.000249552 -0.000874587 0.000222901 -0.000608762 -0.000879951 0.0028353 -0.000874587 0.00230541 0.0028353 0.0319923 0.00230541 0.0402386 -0.000874587 0.00230541 -0.000608762 0.000986959 0.00230541 0.0402386 0.000986959 0.0423545 -6.35097e-07 6.92369e-08 -3.05273e-06 7.84167e-06 6.92369e-08 9.10136e-06 7.84167e-06 -2.05129e-05 -3.05273e-06 7.84167e-06 -4.2618e-06 1.71976e-05 7.84167e-06 -2.05129e-05 1.71976e-05 -6.68855e-05 9.10136e-06 -8.78194e-05 -2.05129e-05 -6.18058e-05 -8.78194e-05 0.000608118 -6.18058e-05 0.00136173 -2.05129e-05 -6.18058e-05 -6.68855e-05 -4.4109e-05 -6.18058e-05 0.00136173 -4.4109e-05 0.00317187 -4.2618e-06 1.71976e-05 -1.2931e-05 4.86378e-05 1.71976e-05 -6.68855e-05 4.86378e-05 -0.000224708 -1.2931e-05 4.86378e-05 -1.25837e-05 6.58855e-05 4.86378e-05 -0.000224708 6.58855e-05 -0.000356842 -6.68855e-05 -4.4109e-05 -0.000224708 0.000430238 -4.4109e-05 0.00317187 0.000430238 0.00445754 -0.000224708 0.000430238 -0.000356842 0.000942117 0.000430238 0.00445754 0.000942117 0.00951714 -2.81137e-06 -4.44586e-06 -2.90551e-06 4.03896e-07 -4.44586e-06 5.31056e-05 4.03896e-07 1.39707e-05 -2.90551e-06 4.03896e-07 7.69379e-06 -1.98766e-05 4.03896e-07 1.39707e-05 -1.98766e-05 8.46237e-05 5.31056e-05 -0.000261174 1.39707e-05 -3.8589e-05 -0.000261174 0.00327003 -3.8589e-05 -0.000222079 1.39707e-05 -3.8589e-05 8.46237e-05 -0.000325203 -3.8589e-05 -0.000222079 -0.000325203 0.000946735 7.69379e-06 -1.98766e-05 2.38319e-06 -7.71092e-06 -1.98766e-05 8.46237e-05 -7.71092e-06 3.90918e-05 2.38319e-06 -7.71092e-06 -6.35097e-07 6.92369e-08 -7.71092e-06 3.90918e-05 6.92369e-08 9.10136e-06 8.46237e-05 -0.000325203 3.90918e-05 -0.000172629 -0.000325203 0.000946735 -0.000172629 0.000647019 3.90918e-05 -0.000172629 9.10136e-06 -8.78194e-05 -0.000172629 0.000647019 -8.78194e-05 0.000608118 -0.000117367 0.000222901 -9.16878e-05 0.000147801 0.000222901 -0.000608762 0.000147801 -0.000280135 -9.16878e-05 0.000147801 -5.12791e-05 6.73622e-05 0.000147801 -0.000280135 6.73622e-05 -4.11418e-05 -0.000608762 0.000986959 -0.000280135 -0.000169818 0.000986959 0.0423545 -0.000169818 0.0388077 -0.000280135 -0.000169818 -4.11418e-05 -0.000676731 -0.000169818 0.0388077 -0.000676731 0.0281371 -5.12791e-05 6.73622e-05 -1.78358e-05 1.40034e-05 6.73622e-05 -4.11418e-05 1.40034e-05 5.47123e-05 -1.78358e-05 1.40034e-05 -2.81137e-06 -4.44586e-06 1.40034e-05 5.47123e-05 -4.44586e-06 5.31056e-05 -4.11418e-05 -0.000676731 5.47123e-05 -0.000563043 -0.000676731 0.0281371 -0.000563043 0.0135114 5.47123e-05 -0.000563043 5.31056e-05 -0.000261174 -0.000563043 0.0135114 -0.000261174 0.00327003 0.00951714 0.0416201 0.0194804 0.0564386 0.0416201 0.0477576 0.0564386 0.0632576 0.0194804 0.0564386 0.0319923 0.073324 0.0564386 0.0632576 0.073324 0.0795165 0.0477576 0.0485008 0.0632576 0.0638924 0.0485008 0.0481072 0.0638924 0.0634747 0.0632576 0.0638924 0.0795165 0.0798383 0.0638924 0.0634747 0.0798383 0.0794662 0.0319923 0.073324 0.0402386 0.0844764 0.073324 0.0795165 0.0844764 0.0894883 0.0402386 0.0844764 0.0423545 0.0884058 0.0844764 0.0894883 0.0884058 0.0921889 0.0795165 0.0798383 0.0894883 0.0894569 0.0798383 0.0794662 0.0894569 0.0891951 0.0894883 0.0894569 0.0921889 0.0918973 0.0894569 0.0891951 0.0918973 0.0917731 0.000608118 0.00368701 0.00136173 0.00495053 0.00368701 0.00437847 0.00495053 0.00636968 0.00136173 0.00495053 0.00317187 0.00981596 0.00495053 0.00636968 0.00981596 0.0130952 0.00437847 0.00428157 0.00636968 0.00632933 0.00428157 0.00429059 0.00632933 0.00629212 0.00636968 0.00632933 0.0130952 0.0131344 0.00632933 0.00629212 0.0131344 0.0130278 0.00317187 0.00981596 0.00445754 0.0321201 0.00981596 0.0130952 0.0321201 0.0361168 0.00445754 0.0321201 0.00951714 0.0416201 0.0321201 0.0361168 0.0416201 0.0477576 0.0130952 0.0131344 0.0361168 0.0367628 0.0131344 0.0130278 0.0367628 0.0364354 0.0361168 0.0367628 0.0477576 0.0485008 0.0367628 0.0364354 0.0485008 0.0481072 0.00327003 0.0484099 -0.000222079 0.038455 0.0484099 0.0487578 0.038455 0.0382229 -0.000222079 0.038455 0.000946735 0.0141587 0.038455 0.0382229 0.0141587 0.0155254 0.0487578 0.0485177 0.0382229 0.0381706 0.0485177 0.0485932 0.0381706 0.0381856 0.0382229 0.0381706 0.0155254 0.0151091 0.0381706 0.0381856 0.0151091 0.0152356 0.000946735 0.0141587 0.000647019 0.00712105 0.0141587 0.0155254 0.00712105 0.00793283 0.000647019 0.00712105 0.000608118 0.00368701 0.00712105 0.00793283 0.00368701 0.00437847 0.0155254 0.0151091 0.00793283 0.00772017 0.0151091 0.0152356 0.00772017 0.00777566 0.00793283 0.00772017 0.00437847 0.00428157 0.00772017 0.00777566 0.00428157 0.00429059 0.0423545 0.0884058 0.0388077 0.0862876 0.0884058 0.0921889 0.0862876 0.0889523 0.0388077 0.0862876 0.0281371 0.0767302 0.0862876 0.0889523 0.0767302 0.0784455 0.0921889 0.0918973 0.0889523 0.0885388 0.0918973 0.0917731 0.0885388 0.0885322 0.0889523 0.0885388 0.0784455 0.078021 0.0885388 0.0885322 0.078021 0.0780885 0.0281371 0.0767302 0.0135114 0.0618844 0.0767302 0.0784455 0.0618844 0.0628353 0.0135114 0.0618844 0.00327003 0.0484099 0.0618844 0.0628353 0.0484099 0.0487578 0.0784455 0.078021 0.0628353 0.062474 0.078021 0.0780885 0.062474 0.0625683 0.0628353 0.062474 0.0487578 0.0485177 0.062474 0.0625683 0.0485177 0.0485932 
