# vtk DataFile Version 3.0
#This file was generated by the deal.II library on 2023/3/8 at 18:39:24
ASCII
DATASET UNSTRUCTURED_GRID

FIELD FieldData 2
CYCLE 1 1 int
143
TIME 1 1 double
0.286
POINTS 1024 double
2 0 0
1.84776 1.22465e-16 0.765367
2.07612 0.382683 0
1.91809 0.382683 0.794497
1.84776 1.22465e-16 0.765367
1.41421 1.22465e-16 1.41421
1.91809 0.382683 0.794497
1.46804 0.382683 1.46804
2.07612 0.382683 0
1.91809 0.382683 0.794497
2.29289 0.707107 0
2.11836 0.707107 0.877452
1.91809 0.382683 0.794497
1.46804 0.382683 1.46804
2.11836 0.707107 0.877452
1.62132 0.707107 1.62132
1.41421 1.22465e-16 1.41421
0.765367 1.22465e-16 1.84776
1.46804 0.382683 1.46804
0.794497 0.382683 1.91809
0.765367 1.22465e-16 1.84776
0 0 2
0.794497 0.382683 1.91809
1.27126e-16 0.382683 2.07612
1.46804 0.382683 1.46804
0.794497 0.382683 1.91809
1.62132 0.707107 1.62132
0.877452 0.707107 2.11836
0.794497 0.382683 1.91809
1.27126e-16 0.382683 2.07612
0.877452 0.707107 2.11836
1.40399e-16 0.707107 2.29289
2.29289 0.707107 0
2.11836 0.707107 0.877452
2.61732 0.92388 0
2.41809 0.92388 1.0016
2.11836 0.707107 0.877452
1.62132 0.707107 1.62132
2.41809 0.92388 1.0016
1.85072 0.92388 1.85072
2.61732 0.92388 0
2.41809 0.92388 1.0016
3 1 0
2.77164 1 1.14805
2.41809 0.92388 1.0016
1.85072 0.92388 1.85072
2.77164 1 1.14805
2.12132 1 2.12132
1.62132 0.707107 1.62132
0.877452 0.707107 2.11836
1.85072 0.92388 1.85072
1.0016 0.92388 2.41809
0.877452 0.707107 2.11836
1.40399e-16 0.707107 2.29289
1.0016 0.92388 2.41809
1.60264e-16 0.92388 2.61732
1.85072 0.92388 1.85072
1.0016 0.92388 2.41809
2.12132 1 2.12132
1.14805 1 2.77164
1.0016 0.92388 2.41809
1.60264e-16 0.92388 2.61732
1.14805 1 2.77164
0 1 3
3 -1 0
2.77164 -1 1.14805
2.61732 -0.92388 0
2.41809 -0.92388 1.0016
2.77164 -1 1.14805
2.12132 -1 2.12132
2.41809 -0.92388 1.0016
1.85072 -0.92388 1.85072
2.61732 -0.92388 0
2.41809 -0.92388 1.0016
2.29289 -0.707107 0
2.11836 -0.707107 0.877452
2.41809 -0.92388 1.0016
1.85072 -0.92388 1.85072
2.11836 -0.707107 0.877452
1.62132 -0.707107 1.62132
2.12132 -1 2.12132
1.14805 -1 2.77164
1.85072 -0.92388 1.85072
1.0016 -0.92388 2.41809
1.14805 -1 2.77164
0 -1 3
1.0016 -0.92388 2.41809
1.60264e-16 -0.92388 2.61732
1.85072 -0.92388 1.85072
1.0016 -0.92388 2.41809
1.62132 -0.707107 1.62132
0.877452 -0.707107 2.11836
1.0016 -0.92388 2.41809
1.60264e-16 -0.92388 2.61732
0.877452 -0.707107 2.11836
1.40399e-16 -0.707107 2.29289
2.29289 -0.707107 0
2.11836 -0.707107 0.877452
2.07612 -0.382683 0
1.91809 -0.382683 0.794497
2.11836 -0.707107 0.877452
1.62132 -0.707107 1.62132
1.91809 -0.382683 0.794497
1.46804 -0.382683 1.46804
2.07612 -0.382683 0
1.91809 -0.382683 0.794497
2 0 0
1.84776 1.22465e-16 0.765367
1.91809 -0.382683 0.794497
1.46804 -0.382683 1.46804
1.84776 1.22465e-16 0.765367
1.41421 1.22465e-16 1.41421
1.62132 -0.707107 1.62132
0.877452 -0.707107 2.11836
1.46804 -0.382683 1.46804
0.794497 -0.382683 1.91809
0.877452 -0.707107 2.11836
1.40399e-16 -0.707107 2.29289
0.794497 -0.382683 1.91809
1.27126e-16 -0.382683 2.07612
1.46804 -0.382683 1.46804
0.794497 -0.382683 1.91809
1.41421 1.22465e-16 1.41421
0.765367 1.22465e-16 1.84776
0.794497 -0.382683 1.91809
1.27126e-16 -0.382683 2.07612
0.765367 1.22465e-16 1.84776
0 0 2
4 0 0
3.69552 0 1.53073
3.92388 -0.382683 0
3.62519 -0.382683 1.5016
3.69552 0 1.53073
2.82843 0 2.82843
3.62519 -0.382683 1.5016
2.7746 -0.382683 2.7746
3.92388 -0.382683 0
3.62519 -0.382683 1.5016
3.70711 -0.707107 0
3.42492 -0.707107 1.41865
3.62519 -0.382683 1.5016
2.7746 -0.382683 2.7746
3.42492 -0.707107 1.41865
2.62132 -0.707107 2.62132
2.82843 0 2.82843
1.53073 0 3.69552
2.7746 -0.382683 2.7746
1.5016 -0.382683 3.62519
1.53073 0 3.69552
0 0 4
1.5016 -0.382683 3.62519
2.40268e-16 -0.382683 3.92388
2.7746 -0.382683 2.7746
1.5016 -0.382683 3.62519
2.62132 -0.707107 2.62132
1.41865 -0.707107 3.42492
1.5016 -0.382683 3.62519
2.40268e-16 -0.382683 3.92388
1.41865 -0.707107 3.42492
2.26995e-16 -0.707107 3.70711
3.70711 -0.707107 0
3.42492 -0.707107 1.41865
3.38268 -0.92388 0
3.12519 -0.92388 1.2945
3.42492 -0.707107 1.41865
2.62132 -0.707107 2.62132
3.12519 -0.92388 1.2945
2.39192 -0.92388 2.39192
3.38268 -0.92388 0
3.12519 -0.92388 1.2945
3 -1 0
2.77164 -1 1.14805
3.12519 -0.92388 1.2945
2.39192 -0.92388 2.39192
2.77164 -1 1.14805
2.12132 -1 2.12132
2.62132 -0.707107 2.62132
1.41865 -0.707107 3.42492
2.39192 -0.92388 2.39192
1.2945 -0.92388 3.12519
1.41865 -0.707107 3.42492
2.26995e-16 -0.707107 3.70711
1.2945 -0.92388 3.12519
2.0713e-16 -0.92388 3.38268
2.39192 -0.92388 2.39192
1.2945 -0.92388 3.12519
2.12132 -1 2.12132
1.14805 -1 2.77164
1.2945 -0.92388 3.12519
2.0713e-16 -0.92388 3.38268
1.14805 -1 2.77164
0 -1 3
3 1 0
2.77164 1 1.14805
3.38268 0.92388 0
3.12519 0.92388 1.2945
2.77164 1 1.14805
2.12132 1 2.12132
3.12519 0.92388 1.2945
2.39192 0.92388 2.39192
3.38268 0.92388 0
3.12519 0.92388 1.2945
3.70711 0.707107 0
3.42492 0.707107 1.41865
3.12519 0.92388 1.2945
2.39192 0.92388 2.39192
3.42492 0.707107 1.41865
2.62132 0.707107 2.62132
2.12132 1 2.12132
1.14805 1 2.77164
2.39192 0.92388 2.39192
1.2945 0.92388 3.12519
1.14805 1 2.77164
0 1 3
1.2945 0.92388 3.12519
2.0713e-16 0.92388 3.38268
2.39192 0.92388 2.39192
1.2945 0.92388 3.12519
2.62132 0.707107 2.62132
1.41865 0.707107 3.42492
1.2945 0.92388 3.12519
2.0713e-16 0.92388 3.38268
1.41865 0.707107 3.42492
2.26995e-16 0.707107 3.70711
3.70711 0.707107 0
3.42492 0.707107 1.41865
3.92388 0.382683 0
3.62519 0.382683 1.5016
3.42492 0.707107 1.41865
2.62132 0.707107 2.62132
3.62519 0.382683 1.5016
2.7746 0.382683 2.7746
3.92388 0.382683 0
3.62519 0.382683 1.5016
4 0 0
3.69552 0 1.53073
3.62519 0.382683 1.5016
2.7746 0.382683 2.7746
3.69552 0 1.53073
2.82843 0 2.82843
2.62132 0.707107 2.62132
1.41865 0.707107 3.42492
2.7746 0.382683 2.7746
1.5016 0.382683 3.62519
1.41865 0.707107 3.42492
2.26995e-16 0.707107 3.70711
1.5016 0.382683 3.62519
2.40268e-16 0.382683 3.92388
2.7746 0.382683 2.7746
1.5016 0.382683 3.62519
2.82843 0 2.82843
1.53073 0 3.69552
1.5016 0.382683 3.62519
2.40268e-16 0.382683 3.92388
1.53073 0 3.69552
0 0 4
0 0 2
-0.765367 1.22465e-16 1.84776
1.27126e-16 0.382683 2.07612
-0.794497 0.382683 1.91809
-0.765367 1.22465e-16 1.84776
-1.41421 1.22465e-16 1.41421
-0.794497 0.382683 1.91809
-1.46804 0.382683 1.46804
1.27126e-16 0.382683 2.07612
-0.794497 0.382683 1.91809
1.40399e-16 0.707107 2.29289
-0.877452 0.707107 2.11836
-0.794497 0.382683 1.91809
-1.46804 0.382683 1.46804
-0.877452 0.707107 2.11836
-1.62132 0.707107 1.62132
-1.41421 1.22465e-16 1.41421
-1.84776 1.22465e-16 0.765367
-1.46804 0.382683 1.46804
-1.91809 0.382683 0.794497
-1.84776 1.22465e-16 0.765367
-2 0 0
-1.91809 0.382683 0.794497
-2.07612 0.382683 2.54251e-16
-1.46804 0.382683 1.46804
-1.91809 0.382683 0.794497
-1.62132 0.707107 1.62132
-2.11836 0.707107 0.877452
-1.91809 0.382683 0.794497
-2.07612 0.382683 2.54251e-16
-2.11836 0.707107 0.877452
-2.29289 0.707107 2.80798e-16
1.40399e-16 0.707107 2.29289
-0.877452 0.707107 2.11836
1.60264e-16 0.92388 2.61732
-1.0016 0.92388 2.41809
-0.877452 0.707107 2.11836
-1.62132 0.707107 1.62132
-1.0016 0.92388 2.41809
-1.85072 0.92388 1.85072
1.60264e-16 0.92388 2.61732
-1.0016 0.92388 2.41809
0 1 3
-1.14805 1 2.77164
-1.0016 0.92388 2.41809
-1.85072 0.92388 1.85072
-1.14805 1 2.77164
-2.12132 1 2.12132
-1.62132 0.707107 1.62132
-2.11836 0.707107 0.877452
-1.85072 0.92388 1.85072
-2.41809 0.92388 1.0016
-2.11836 0.707107 0.877452
-2.29289 0.707107 2.80798e-16
-2.41809 0.92388 1.0016
-2.61732 0.92388 3.20529e-16
-1.85072 0.92388 1.85072
-2.41809 0.92388 1.0016
-2.12132 1 2.12132
-2.77164 1 1.14805
-2.41809 0.92388 1.0016
-2.61732 0.92388 3.20529e-16
-2.77164 1 1.14805
-3 1 0
0 -1 3
-1.14805 -1 2.77164
1.60264e-16 -0.92388 2.61732
-1.0016 -0.92388 2.41809
-1.14805 -1 2.77164
-2.12132 -1 2.12132
-1.0016 -0.92388 2.41809
-1.85072 -0.92388 1.85072
1.60264e-16 -0.92388 2.61732
-1.0016 -0.92388 2.41809
1.40399e-16 -0.707107 2.29289
-0.877452 -0.707107 2.11836
-1.0016 -0.92388 2.41809
-1.85072 -0.92388 1.85072
-0.877452 -0.707107 2.11836
-1.62132 -0.707107 1.62132
-2.12132 -1 2.12132
-2.77164 -1 1.14805
-1.85072 -0.92388 1.85072
-2.41809 -0.92388 1.0016
-2.77164 -1 1.14805
-3 -1 0
-2.41809 -0.92388 1.0016
-2.61732 -0.92388 3.20529e-16
-1.85072 -0.92388 1.85072
-2.41809 -0.92388 1.0016
-1.62132 -0.707107 1.62132
-2.11836 -0.707107 0.877452
-2.41809 -0.92388 1.0016
-2.61732 -0.92388 3.20529e-16
-2.11836 -0.707107 0.877452
-2.29289 -0.707107 2.80798e-16
1.40399e-16 -0.707107 2.29289
-0.877452 -0.707107 2.11836
1.27126e-16 -0.382683 2.07612
-0.794497 -0.382683 1.91809
-0.877452 -0.707107 2.11836
-1.62132 -0.707107 1.62132
-0.794497 -0.382683 1.91809
-1.46804 -0.382683 1.46804
1.27126e-16 -0.382683 2.07612
-0.794497 -0.382683 1.91809
0 0 2
-0.765367 1.22465e-16 1.84776
-0.794497 -0.382683 1.91809
-1.46804 -0.382683 1.46804
-0.765367 1.22465e-16 1.84776
-1.41421 1.22465e-16 1.41421
-1.62132 -0.707107 1.62132
-2.11836 -0.707107 0.877452
-1.46804 -0.382683 1.46804
-1.91809 -0.382683 0.794497
-2.11836 -0.707107 0.877452
-2.29289 -0.707107 2.80798e-16
-1.91809 -0.382683 0.794497
-2.07612 -0.382683 2.54251e-16
-1.46804 -0.382683 1.46804
-1.91809 -0.382683 0.794497
-1.41421 1.22465e-16 1.41421
-1.84776 1.22465e-16 0.765367
-1.91809 -0.382683 0.794497
-2.07612 -0.382683 2.54251e-16
-1.84776 1.22465e-16 0.765367
-2 0 0
0 0 4
-1.53073 0 3.69552
2.40268e-16 -0.382683 3.92388
-1.5016 -0.382683 3.62519
-1.53073 0 3.69552
-2.82843 0 2.82843
-1.5016 -0.382683 3.62519
-2.7746 -0.382683 2.7746
2.40268e-16 -0.382683 3.92388
-1.5016 -0.382683 3.62519
2.26995e-16 -0.707107 3.70711
-1.41865 -0.707107 3.42492
-1.5016 -0.382683 3.62519
-2.7746 -0.382683 2.7746
-1.41865 -0.707107 3.42492
-2.62132 -0.707107 2.62132
-2.82843 0 2.82843
-3.69552 0 1.53073
-2.7746 -0.382683 2.7746
-3.62519 -0.382683 1.5016
-3.69552 0 1.53073
-4 0 0
-3.62519 -0.382683 1.5016
-3.92388 -0.382683 4.80537e-16
-2.7746 -0.382683 2.7746
-3.62519 -0.382683 1.5016
-2.62132 -0.707107 2.62132
-3.42492 -0.707107 1.41865
[...]
POINT_DATA 1024
SCALARS U double 1
LOOKUP_TABLE default
0.0750791 0.0750424 0.0915033 0.0914811 0.0750424 0.0749935 0.0914811 0.0915555 0.0915033 0.0914811 0.104565 0.104536 0.0914811 0.0915555 0.104536 0.104926 0.0749935 0.0626008 0.0915555 0.0782299 0.0626008 0.017524 0.0782299 0.0258724 0.0915555 0.0782299 0.104926 0.0927586 0.0782299 0.0258724 0.0927586 0.0338812 0.104565 0.104536 0.113246 0.113187 0.104536 0.104926 0.113187 0.113876 0.113246 0.113187 0.115725 0.11563 0.113187 0.113876 0.11563 0.116453 0.104926 0.0927586 0.113876 0.104016 0.0927586 0.0338812 0.104016 0.0390863 0.113876 0.104016 0.116453 0.109161 0.104016 0.0390863 0.109161 0.0396858 0.00653971 0.00655468 0.0098774 0.00992914 0.00655468 0.0066327 0.00992914 0.0098352 0.0098774 0.00992914 0.0253393 0.0253751 0.00992914 0.0098352 0.0253751 0.0252206 0.0066327 0.00522449 0.0098352 0.00767585 0.00522449 0.00131197 0.00767585 0.00218881 0.0098352 0.00767585 0.0252206 0.0205255 0.00767585 0.00218881 0.0205255 0.00491209 0.0253393 0.0253751 0.0517422 0.0517203 0.0253751 0.0252206 0.0517203 0.0516389 0.0517422 0.0517203 0.0750791 0.0750424 0.0517203 0.0516389 0.0750424 0.0749935 0.0252206 0.0205255 0.0516389 0.0427039 0.0205255 0.00491209 0.0427039 0.0102447 0.0516389 0.0427039 0.0749935 0.0626008 0.0427039 0.0102447 0.0626008 0.017524 0.0754902 0.0753292 0.0544821 0.0543419 0.0753292 0.075846 0.0543419 0.0548011 0.0544821 0.0543419 0.0289274 0.0288248 0.0543419 0.0548011 0.0288248 0.0292424 0.075846 0.0744611 0.0548011 0.0534873 0.0744611 0.00675097 0.0534873 0.00245826 0.0548011 0.0534873 0.0292424 0.027607 0.0534873 0.00245826 0.027607 0.0014339 0.0289274 0.0288248 0.0118752 0.0118326 0.0288248 0.0292424 0.0118326 0.0121055 0.0118752 0.0118326 0.00653971 0.00655468 0.0118326 0.0121055 0.00655468 0.0066327 0.0292424 0.027607 0.0121055 0.0105584 0.027607 0.0014339 0.0105584 0.00127481 0.0121055 0.0105584 0.0066327 0.00522449 0.0105584 0.00127481 0.00522449 0.00131197 0.115725 0.11563 0.111829 0.111697 0.11563 0.116453 0.111697 0.112516 0.111829 0.111697 0.102496 0.102336 0.111697 0.112516 0.102336 0.103079 0.116453 0.109161 0.112516 0.107453 0.109161 0.0396858 0.107453 0.035102 0.112516 0.107453 0.103079 0.0997078 0.107453 0.035102 0.0997078 0.0260842 0.102496 0.102336 0.0901138 0.0899438 0.102336 0.103079 0.0899438 0.0905751 0.0901138 0.0899438 0.0754902 0.0753292 0.0899438 0.0905751 0.0753292 0.075846 0.103079 0.0997078 0.0905751 0.0884263 0.0997078 0.0260842 0.0884263 0.0153592 0.0905751 0.0884263 0.075846 0.0744611 0.0884263 0.0153592 0.0744611 0.00675097 0.017524 0.00151987 0.0258724 0.00323669 0.00151987 -9.61153e-05 0.00323669 -0.000271285 0.0258724 0.00323669 0.0338812 0.00453508 0.00323669 -0.000271285 0.00453508 -0.000548662 -9.61153e-05 -5.69419e-05 -0.000271285 -6.61211e-05 -5.69419e-05 4.10283e-05 -6.61211e-05 6.07695e-05 -0.000271285 -6.61211e-05 -0.000548662 -2.55701e-05 -6.61211e-05 6.07695e-05 -2.55701e-05 6.05078e-05 0.0338812 0.00453508 0.0390863 0.00460434 0.00453508 -0.000548662 0.00460434 -0.000781549 0.0390863 0.00460434 0.0396858 0.00358022 0.00460434 -0.000781549 0.00358022 -0.000811972 -0.000548662 -2.55701e-05 -0.000781549 6.06649e-05 -2.55701e-05 6.05078e-05 6.06649e-05 2.45562e-05 -0.000781549 6.06649e-05 -0.000811972 0.000133937 6.06649e-05 2.45562e-05 0.000133937 -2.45928e-05 0.00131197 -8.7226e-05 0.00218881 4.61231e-05 -8.7226e-05 -6.41318e-06 4.61231e-05 -4.16848e-05 0.00218881 4.61231e-05 0.00491209 0.000144452 4.61231e-05 -4.16848e-05 0.000144452 -5.07155e-05 -6.41318e-06 3.8871e-06 -4.16848e-05 4.75715e-06 3.8871e-06 -1.77152e-06 4.75715e-06 1.08954e-06 -4.16848e-05 4.75715e-06 -5.07155e-05 -6.88721e-06 4.75715e-06 1.08954e-06 -6.88721e-06 9.79165e-06 0.00491209 0.000144452 0.0102447 0.00044372 0.000144452 -5.07155e-05 0.00044372 -4.20289e-05 0.0102447 0.00044372 0.017524 0.00151987 0.00044372 -4.20289e-05 0.00151987 -9.61153e-05 -5.07155e-05 -6.88721e-06 -4.20289e-05 -3.11465e-05 -6.88721e-06 9.79165e-06 -3.11465e-05 2.32498e-05 -4.20289e-05 -3.11465e-05 -9.61153e-05 -5.69419e-05 -3.11465e-05 2.32498e-05 -5.69419e-05 4.10283e-05 0.00675097 -0.000177476 0.00245826 -0.000305154 -0.000177476 1.59624e-05 -0.000305154 7.12041e-05 0.00245826 -0.000305154 0.0014339 -0.000335733 -0.000305154 7.12041e-05 -0.000335733 7.1339e-05 1.59624e-05 4.02195e-06 7.12041e-05 -1.41485e-05 4.02195e-06 -4.47049e-06 -1.41485e-05 4.5679e-06 7.12041e-05 -1.41485e-05 7.1339e-05 -1.29245e-05 -1.41485e-05 4.5679e-06 -1.29245e-05 3.6422e-06 0.0014339 -0.000335733 0.00127481 -0.000238838 -0.000335733 7.1339e-05 -0.000238838 3.61919e-05 0.00127481 -0.000238838 0.00131197 -8.7226e-05 -0.000238838 3.61919e-05 -8.7226e-05 -6.41318e-06 7.1339e-05 -1.29245e-05 3.61919e-05 -3.4595e-06 -1.29245e-05 3.6422e-06 -3.4595e-06 -3.63248e-07 3.61919e-05 -3.4595e-06 -6.41318e-06 3.8871e-06 -3.4595e-06 -3.63248e-07 3.8871e-06 -1.77152e-06 0.0396858 0.00358022 0.035102 0.00214882 0.00358022 -0.000811972 0.00214882 -0.000632583 0.035102 0.00214882 0.0260842 0.000917589 0.00214882 -0.000632583 0.000917589 -0.000360777 -0.000811972 0.000133937 -0.000632583 0.000147244 0.000133937 -2.45928e-05 0.000147244 -5.1999e-05 -0.000632583 0.000147244 -0.000360777 0.000105953 0.000147244 -5.1999e-05 0.000105953 -4.71761e-05 0.0260842 0.000917589 0.0153592 0.000157959 0.000917589 -0.000360777 0.000157959 -0.000124088 0.0153592 0.000157959 0.00675097 -0.000177476 0.000157959 -0.000124088 -0.000177476 1.59624e-05 -0.000360777 0.000105953 -0.000124088 4.73548e-05 0.000105953 -4.71761e-05 4.73548e-05 -2.48485e-05 -0.000124088 4.73548e-05 1.59624e-05 4.02195e-06 4.73548e-05 -2.48485e-05 4.02195e-06 -4.47049e-06 4.10283e-05 -5.69483e-05 6.07695e-05 -6.61238e-05 -5.69483e-05 -9.6117e-05 -6.61238e-05 -0.000271291 6.07695e-05 -6.61238e-05 6.05078e-05 -2.55772e-05 -6.61238e-05 -0.000271291 -2.55772e-05 -0.000548668 -9.6117e-05 0.00151987 -0.000271291 0.00323669 0.00151987 0.017524 0.00323669 0.0258724 -0.000271291 0.00323669 -0.000548668 0.00453509 0.00323669 0.0258724 0.00453509 0.0338812 6.05078e-05 -2.55772e-05 2.45562e-05 6.0662e-05 -2.55772e-05 -0.000548668 6.0662e-05 -0.000781545 2.45562e-05 6.0662e-05 -2.45928e-05 0.000133939 6.0662e-05 -0.000781545 0.000133939 -0.000811968 -0.000548668 0.00453509 -0.000781545 0.00460434 0.00453509 0.0338812 0.00460434 0.0390863 -0.000781545 0.00460434 -0.000811968 0.00358022 0.00460434 0.0390863 0.00358022 0.0396858 -1.77152e-06 3.89028e-06 1.08954e-06 4.76217e-06 3.89028e-06 -6.41209e-06 4.76217e-06 -4.16871e-05 1.08954e-06 4.76217e-06 9.79165e-06 -6.88924e-06 4.76217e-06 -4.16871e-05 -6.88924e-06 -5.07123e-05 -6.41209e-06 -8.72245e-05 -4.16871e-05 4.61306e-05 -8.72245e-05 0.00131197 4.61306e-05 0.00218881 -4.16871e-05 4.61306e-05 -5.07123e-05 0.000144451 4.61306e-05 0.00218881 0.000144451 0.00491208 9.79165e-06 -6.88924e-06 2.32498e-05 -3.11455e-05 -6.88924e-06 -5.07123e-05 -3.11455e-05 -4.20349e-05 2.32498e-05 -3.11455e-05 4.10283e-05 -5.69483e-05 -3.11455e-05 -4.20349e-05 -5.69483e-05 -9.6117e-05 -5.07123e-05 0.000144451 -4.20349e-05 0.000443723 0.000144451 0.00491208 0.000443723 0.0102447 -4.20349e-05 0.000443723 -9.6117e-05 0.00151987 0.000443723 0.0102447 0.00151987 0.017524 -4.47049e-06 4.02052e-06 4.5679e-06 -1.41472e-05 4.02052e-06 1.59681e-05 -1.41472e-05 7.12091e-05 4.5679e-06 -1.41472e-05 3.6422e-06 -1.29272e-05 -1.41472e-05 7.12091e-05 -1.29272e-05 7.13462e-05 1.59681e-05 -0.000177479 7.12091e-05 -0.000305156 -0.000177479 0.00675098 -0.000305156 0.00245827 7.12091e-05 -0.000305156 7.13462e-05 -0.000335736 -0.000305156 0.00245827 -0.000335736 0.00143391 3.6422e-06 -1.29272e-05 -3.63248e-07 -3.46024e-06 -1.29272e-05 7.13462e-05 -3.46024e-06 3.61948e-05 -3.63248e-07 -3.46024e-06 -1.77152e-06 3.89028e-06 -3.46024e-06 3.61948e-05 3.89028e-06 -6.41209e-06 7.13462e-05 -0.000335736 3.61948e-05 -0.000238837 -0.000335736 0.00143391 -0.000238837 0.00127482 3.61948e-05 -0.000238837 -6.41209e-06 -8.72245e-05 -0.000238837 0.00127482 -8.72245e-05 0.00131197 -2.45928e-05 0.000133939 -5.1999e-05 0.000147247 0.000133939 -0.000811968 0.000147247 -0.000632581 -5.1999e-05 0.000147247 -4.71761e-05 0.000105955 0.000147247 -0.000632581 0.000105955 -0.000360769 -0.000811968 0.00358022 -0.000632581 0.00214882 0.00358022 0.0396858 0.00214882 0.0351019 -0.000632581 0.00214882 -0.000360769 0.000917584 0.00214882 0.0351019 0.000917584 0.0260841 -4.71761e-05 0.000105955 -2.48485e-05 4.73578e-05 0.000105955 -0.000360769 4.73578e-05 -0.000124084 -2.48485e-05 4.73578e-05 -4.47049e-06 4.02052e-06 4.73578e-05 -0.000124084 4.02052e-06 1.59681e-05 -0.000360769 0.000917584 -0.000124084 0.000157956 0.000917584 0.0260841 0.000157956 0.0153592 -0.000124084 0.000157956 1.59681e-05 -0.000177479 0.000157956 0.0153592 -0.000177479 0.00675098 0.017524 0.0626008 0.0258724 0.07823 0.0626008 0.0749934 0.07823 0.0915554 0.0258724 0.07823 0.0338812 0.0927586 0.07823 0.0915554 0.0927586 0.104926 0.0749934 0.0750424 0.0915554 0.0914811 0.0750424 0.0750791 0.0914811 0.0915033 0.0915554 0.0914811 0.104926 0.104536 0.0914811 0.0915033 0.104536 0.104565 0.0338812 0.0927586 0.0390863 0.104016 0.0927586 0.104926 0.104016 0.113876 0.0390863 0.104016 0.0396858 0.109161 0.104016 0.113876 0.109161 0.116453 0.104926 0.104536 0.113876 0.113187 0.104536 0.104565 0.113187 0.113246 0.113876 0.113187 0.116453 0.11563 0.113187 0.113246 0.11563 0.115725 0.00131197 0.00522451 0.00218881 0.00767584 0.00522451 0.0066327 0.00767584 0.00983521 0.00218881 0.00767584 0.00491208 0.0205255 0.00767584 0.00983521 0.0205255 0.0252206 0.0066327 0.00655466 0.00983521 0.00992912 0.00655466 0.00653971 0.00992912 0.0098774 0.00983521 0.00992912 0.0252206 0.0253751 0.00992912 0.0098774 0.0253751 0.0253393 0.00491208 0.0205255 0.0102447 0.0427039 0.0205255 0.0252206 0.0427039 0.0516388 0.0102447 0.0427039 0.017524 0.0626008 0.0427039 0.0516388 0.0626008 0.0749934 0.0252206 0.0253751 0.0516388 0.0517203 0.0253751 0.0253393 0.0517203 0.0517422 0.0516388 0.0517203 0.0749934 0.0750424 0.0517203 0.0517422 0.0750424 0.0750791 0.00675098 0.0744611 0.00245827 0.0534873 0.0744611 0.075846 0.0534873 0.0548011 0.00245827 0.0534873 0.00143391 0.027607 0.0534873 0.0548011 0.027607 0.0292424 0.075846 0.0753292 0.0548011 0.0543419 0.0753292 0.0754902 0.0543419 0.0544821 0.0548011 0.0543419 0.0292424 0.0288248 0.0543419 0.0544821 0.0288248 0.0289274 0.00143391 0.027607 0.00127482 0.0105584 0.027607 0.0292424 0.0105584 0.0121055 0.00127482 0.0105584 0.00131197 0.00522451 0.0105584 0.0121055 0.00522451 0.0066327 0.0292424 0.0288248 0.0121055 0.0118326 0.0288248 0.0289274 0.0118326 0.0118752 0.0121055 0.0118326 0.0066327 0.00655466 0.0118326 0.0118752 0.00655466 0.00653971 0.0396858 0.109161 0.0351019 0.107453 0.109161 0.116453 0.107453 0.112516 0.0351019 0.107453 0.0260841 0.0997078 0.107453 0.112516 0.0997078 0.103079 0.116453 0.11563 0.112516 0.111697 0.11563 0.115725 0.111697 0.111829 0.112516 0.111697 0.103079 0.102336 0.111697 0.111829 0.102336 0.102496 0.0260841 0.0997078 0.0153592 0.0884263 0.0997078 0.103079 0.0884263 0.0905751 0.0153592 0.0884263 0.00675098 0.0744611 0.0884263 0.0905751 0.0744611 0.075846 0.103079 0.102336 0.0905751 0.0899438 0.102336 0.102496 0.0899438 0.0901138 0.0905751 0.0899438 0.075846 0.0753292 0.0899438 0.0901138 0.0753292 0.0754902 
