# vtk DataFile Version 3.0
#This file was generated by the deal.II library on 2023/3/9 at 14:21:08
ASCII
DATASET UNSTRUCTURED_GRID

FIELD FieldData 2
CYCLE 1 1 int
115
TIME 1 1 double
0.23
POINTS 64 double
2 0 0
0 0 2
3 1 0
0 1 3
3 -1 0
0 -1 3
2 0 0
0 0 2
4 0 0
0 0 4
3 -1 0
0 -1 3
3 1 0
0 1 3
4 0 0
0 0 4
0 0 2
-2 0 0
0 1 3
-3 1 0
0 -1 3
-3 -1 0
0 0 2
-2 0 0
0 0 4
-4 0 0
0 -1 3
-3 -1 0
0 1 3
-3 1 0
0 0 4
-4 0 0
-2 0 0
0 0 -2
-3 1 0
0 1 -3
-3 -1 0
0 -1 -3
-2 0 0
0 0 -2
-4 0 0
0 0 -4
-3 -1 0
0 -1 -3
-3 1 0
0 1 -3
-4 0 0
0 0 -4
0 0 -2
2 0 0
0 1 -3
3 1 0
0 -1 -3
3 -1 0
0 0 -2
2 0 0
0 0 -4
4 0 0
0 -1 -3
3 -1 0
0 1 -3
3 1 0
0 0 -4
4 0 0

CELLS 16 80
4	0	1	3	2
4	4	5	7	6
4	8	9	11	10
4	12	13	15	14
4	16	17	19	18
4	20	21	23	22
4	24	25	27	26
4	28	29	31	30
4	32	33	35	34
4	36	37	39	38
4	40	41	43	42
4	44	45	47	46
4	48	49	51	50
4	52	53	55	54
4	56	57	59	58
4	60	61	63	62

CELL_TYPES 16
 9 9 9 9 9 9 9 9 9 9 9 9 9 9 9 9
POINT_DATA 64
SCALARS U double 1
LOOKUP_TABLE default
-46.5597 28.4359 24.5434 27.7805 24.5434 27.7805 -46.5597 28.4359 16.7166 27.2154 24.5434 27.7805 24.5434 27.7805 16.7166 27.2154 28.4359 32.2037 27.7805 -38.7004 27.7805 -38.7004 28.4359 32.2037 27.2154 -30.725 27.7805 -38.7004 27.7805 -38.7004 27.2154 -30.725 32.2037 28.4359 -38.7004 27.7805 -38.7004 27.7805 32.2037 28.4359 -30.725 27.2154 -38.7004 27.7805 -38.7004 27.7805 -30.725 27.2154 28.4359 -46.5597 27.7805 24.5434 27.7805 24.5434 28.4359 -46.5597 27.2154 16.7166 27.7805 24.5434 27.7805 24.5434 27.2154 16.7166 
