# vtk DataFile Version 3.0
#This file was generated by the deal.II library on 2023/3/9 at 5:31:12
ASCII
DATASET UNSTRUCTURED_GRID

FIELD FieldData 2
CYCLE 1 1 int
46
TIME 1 1 double
0.092
POINTS 16384 double
2 0 0
1.99037 1.22465e-16 0.196034
2.00482 0.0980171 0
1.99516 0.0980171 0.196506
1.99037 1.22465e-16 0.196034
1.96157 1.22465e-16 0.390181
1.99516 0.0980171 0.196506
1.96629 0.0980171 0.39112
2.00482 0.0980171 0
1.99516 0.0980171 0.196506
2.01921 0.19509 0
2.00949 0.19509 0.197918
1.99516 0.0980171 0.196506
1.96629 0.0980171 0.39112
2.00949 0.19509 0.197918
1.98042 0.19509 0.393929
1.96157 1.22465e-16 0.390181
1.91388 1.22465e-16 0.580569
1.96629 0.0980171 0.39112
1.91849 0.0980171 0.581967
1.91388 1.22465e-16 0.580569
1.84776 1.22465e-16 0.765367
1.91849 0.0980171 0.581967
1.85221 0.0980171 0.76721
1.96629 0.0980171 0.39112
1.91849 0.0980171 0.581967
1.98042 0.19509 0.393929
1.93227 0.19509 0.586147
1.91849 0.0980171 0.581967
1.85221 0.0980171 0.76721
1.93227 0.19509 0.586147
1.86551 0.19509 0.77272
2.01921 0.19509 0
2.00949 0.19509 0.197918
2.04306 0.290285 0
2.03322 0.290285 0.200255
2.00949 0.19509 0.197918
1.98042 0.19509 0.393929
2.03322 0.290285 0.200255
2.0038 0.290285 0.398581
2.04306 0.290285 0
2.03322 0.290285 0.200255
2.07612 0.382683 0
2.06612 0.382683 0.203495
2.03322 0.290285 0.200255
2.0038 0.290285 0.398581
2.06612 0.382683 0.203495
2.03623 0.382683 0.405031
1.98042 0.19509 0.393929
1.93227 0.19509 0.586147
2.0038 0.290285 0.398581
1.95509 0.290285 0.593069
1.93227 0.19509 0.586147
1.86551 0.19509 0.77272
1.95509 0.290285 0.593069
1.88754 0.290285 0.781845
2.0038 0.290285 0.398581
1.95509 0.290285 0.593069
2.03623 0.382683 0.405031
1.98672 0.382683 0.602666
1.95509 0.290285 0.593069
1.88754 0.290285 0.781845
1.98672 0.382683 0.602666
1.91809 0.382683 0.794497
1.84776 1.22465e-16 0.765367
1.76384 1.22465e-16 0.942793
1.85221 0.0980171 0.76721
1.76809 0.0980171 0.945063
1.76384 1.22465e-16 0.942793
1.66294 1.22465e-16 1.11114
1.76809 0.0980171 0.945063
1.66694 0.0980171 1.11382
1.85221 0.0980171 0.76721
1.76809 0.0980171 0.945063
1.86551 0.19509 0.77272
1.78079 0.19509 0.951851
1.76809 0.0980171 0.945063
1.66694 0.0980171 1.11382
1.78079 0.19509 0.951851
1.67892 0.19509 1.12182
1.66294 1.22465e-16 1.11114
1.54602 1.22465e-16 1.26879
1.66694 0.0980171 1.11382
1.54974 0.0980171 1.27184
1.54602 1.22465e-16 1.26879
1.41421 1.22465e-16 1.41421
1.54974 0.0980171 1.27184
1.41762 0.0980171 1.41762
1.66694 0.0980171 1.11382
1.54974 0.0980171 1.27184
1.67892 0.19509 1.12182
1.56087 0.19509 1.28098
1.54974 0.0980171 1.27184
1.41762 0.0980171 1.41762
1.56087 0.19509 1.28098
1.4278 0.19509 1.4278
1.86551 0.19509 0.77272
1.78079 0.19509 0.951851
1.88754 0.290285 0.781845
1.80182 0.290285 0.963092
1.78079 0.19509 0.951851
1.67892 0.19509 1.12182
1.80182 0.290285 0.963092
1.69874 0.290285 1.13506
1.88754 0.290285 0.781845
1.80182 0.290285 0.963092
1.91809 0.382683 0.794497
1.83097 0.382683 0.978676
1.80182 0.290285 0.963092
1.69874 0.290285 1.13506
1.83097 0.382683 0.978676
1.72623 0.382683 1.15343
1.67892 0.19509 1.12182
1.56087 0.19509 1.28098
1.69874 0.290285 1.13506
1.57931 0.290285 1.2961
1.56087 0.19509 1.28098
1.4278 0.19509 1.4278
1.57931 0.290285 1.2961
1.44466 0.290285 1.44466
1.69874 0.290285 1.13506
1.57931 0.290285 1.2961
1.72623 0.382683 1.15343
1.60486 0.382683 1.31708
1.57931 0.290285 1.2961
1.44466 0.290285 1.44466
1.60486 0.382683 1.31708
1.46804 0.382683 1.46804
2.07612 0.382683 0
2.06612 0.382683 0.203495
2.11808 0.471397 0
2.10788 0.471397 0.207608
2.06612 0.382683 0.203495
2.03623 0.382683 0.405031
2.10788 0.471397 0.207608
2.07738 0.471397 0.413217
2.11808 0.471397 0
2.10788 0.471397 0.207608
2.16853 0.55557 0
2.15809 0.55557 0.212553
2.10788 0.471397 0.207608
2.07738 0.471397 0.413217
2.15809 0.55557 0.212553
2.12686 0.55557 0.423059
2.03623 0.382683 0.405031
1.98672 0.382683 0.602666
2.07738 0.471397 0.413217
2.02687 0.471397 0.614846
1.98672 0.382683 0.602666
1.91809 0.382683 0.794497
2.02687 0.471397 0.614846
1.95685 0.471397 0.810554
2.07738 0.471397 0.413217
2.02687 0.471397 0.614846
2.12686 0.55557 0.423059
2.07515 0.55557 0.629491
2.02687 0.471397 0.614846
1.95685 0.471397 0.810554
2.07515 0.55557 0.629491
2.00346 0.55557 0.829861
2.16853 0.55557 0
2.15809 0.55557 0.212553
2.22699 0.634393 0
2.21627 0.634393 0.218283
2.15809 0.55557 0.212553
2.12686 0.55557 0.423059
2.21627 0.634393 0.218283
2.1842 0.634393 0.434464
2.22699 0.634393 0
2.21627 0.634393 0.218283
2.29289 0.707107 0
2.28185 0.707107 0.224743
2.21627 0.634393 0.218283
2.1842 0.634393 0.434464
2.28185 0.707107 0.224743
2.24884 0.707107 0.447321
2.12686 0.55557 0.423059
2.07515 0.55557 0.629491
2.1842 0.634393 0.434464
2.1311 0.634393 0.646461
2.07515 0.55557 0.629491
2.00346 0.55557 0.829861
2.1311 0.634393 0.646461
2.05747 0.634393 0.852232
2.1842 0.634393 0.434464
2.1311 0.634393 0.646461
2.24884 0.707107 0.447321
2.19416 0.707107 0.665592
2.1311 0.634393 0.646461
2.05747 0.634393 0.852232
2.19416 0.707107 0.665592
2.11836 0.707107 0.877452
1.91809 0.382683 0.794497
1.83097 0.382683 0.978676
1.95685 0.471397 0.810554
1.86798 0.471397 0.998455
1.83097 0.382683 0.978676
1.72623 0.382683 1.15343
1.86798 0.471397 0.998455
1.76112 0.471397 1.17674
1.95685 0.471397 0.810554
1.86798 0.471397 0.998455
2.00346 0.55557 0.829861
1.91247 0.55557 1.02224
1.86798 0.471397 0.998455
1.76112 0.471397 1.17674
1.91247 0.55557 1.02224
1.80307 0.55557 1.20477
1.72623 0.382683 1.15343
1.60486 0.382683 1.31708
1.76112 0.471397 1.17674
1.6373 0.471397 1.34369
1.60486 0.382683 1.31708
1.46804 0.382683 1.46804
1.6373 0.471397 1.34369
1.49771 0.471397 1.49771
1.76112 0.471397 1.17674
1.6373 0.471397 1.34369
1.80307 0.55557 1.20477
1.6763 0.55557 1.3757
1.6373 0.471397 1.34369
1.49771 0.471397 1.49771
1.6763 0.55557 1.3757
1.53338 0.55557 1.53338
2.00346 0.55557 0.829861
1.91247 0.55557 1.02224
2.05747 0.634393 0.852232
1.96403 0.634393 1.0498
1.91247 0.55557 1.02224
1.80307 0.55557 1.20477
1.96403 0.634393 1.0498
1.85167 0.634393 1.23725
2.05747 0.634393 0.852232
1.96403 0.634393 1.0498
2.11836 0.707107 0.877452
2.02215 0.707107 1.08086
1.96403 0.634393 1.0498
1.85167 0.634393 1.23725
2.02215 0.707107 1.08086
1.90647 0.707107 1.27386
1.80307 0.55557 1.20477
1.6763 0.55557 1.3757
1.85167 0.634393 1.23725
1.72149 0.634393 1.41279
1.6763 0.55557 1.3757
1.53338 0.55557 1.53338
1.72149 0.634393 1.41279
1.57472 0.634393 1.57472
1.85167 0.634393 1.23725
1.72149 0.634393 1.41279
1.90647 0.707107 1.27386
1.77243 0.707107 1.4546
1.72149 0.634393 1.41279
1.57472 0.634393 1.57472
1.77243 0.707107 1.4546
1.62132 0.707107 1.62132
1.41421 1.22465e-16 1.41421
1.26879 1.22465e-16 1.54602
1.41762 0.0980171 1.41762
1.27184 0.0980171 1.54974
1.26879 1.22465e-16 1.54602
1.11114 1.22465e-16 1.66294
1.27184 0.0980171 1.54974
1.11382 0.0980171 1.66694
1.41762 0.0980171 1.41762
1.27184 0.0980171 1.54974
1.4278 0.19509 1.4278
1.28098 0.19509 1.56087
1.27184 0.0980171 1.54974
1.11382 0.0980171 1.66694
1.28098 0.19509 1.56087
1.12182 0.19509 1.67892
1.11114 1.22465e-16 1.66294
0.942793 1.22465e-16 1.76384
1.11382 0.0980171 1.66694
0.945063 0.0980171 1.76809
0.942793 1.22465e-16 1.76384
0.765367 1.22465e-16 1.84776
0.945063 0.0980171 1.76809
0.76721 0.0980171 1.85221
1.11382 0.0980171 1.66694
0.945063 0.0980171 1.76809
1.12182 0.19509 1.67892
0.951851 0.19509 1.78079
0.945063 0.0980171 1.76809
0.76721 0.0980171 1.85221
0.951851 0.19509 1.78079
0.77272 0.19509 1.86551
1.4278 0.19509 1.4278
1.28098 0.19509 1.56087
1.44466 0.290285 1.44466
1.2961 0.290285 1.57931
1.28098 0.19509 1.56087
1.12182 0.19509 1.67892
1.2961 0.290285 1.57931
1.13506 0.290285 1.69874
1.44466 0.290285 1.44466
1.2961 0.290285 1.57931
1.46804 0.382683 1.46804
1.31708 0.382683 1.60486
1.2961 0.290285 1.57931
1.13506 0.290285 1.69874
1.31708 0.382683 1.60486
1.15343 0.382683 1.72623
1.12182 0.19509 1.67892
0.951851 0.19509 1.78079
1.13506 0.290285 1.69874
0.963092 0.290285 1.80182
0.951851 0.19509 1.78079
0.77272 0.19509 1.86551
0.963092 0.290285 1.80182
0.781845 0.290285 1.88754
1.13506 0.290285 1.69874
0.963092 0.290285 1.80182
1.15343 0.382683 1.72623
0.978676 0.382683 1.83097
0.963092 0.290285 1.80182
0.781845 0.290285 1.88754
0.978676 0.382683 1.83097
0.794497 0.382683 1.91809
0.765367 1.22465e-16 1.84776
0.580569 1.22465e-16 1.91388
0.76721 0.0980171 1.85221
0.581967 0.0980171 1.91849
0.580569 1.22465e-16 1.91388
0.390181 1.22465e-16 1.96157
0.581967 0.0980171 1.91849
0.39112 0.0980171 1.96629
0.76721 0.0980171 1.85221
0.581967 0.0980171 1.91849
0.77272 0.19509 1.86551
0.586147 0.19509 1.93227
0.581967 0.0980171 1.91849
0.39112 0.0980171 1.96629
0.586147 0.19509 1.93227
0.393929 0.19509 1.98042
0.390181 1.22465e-16 1.96157
0.196034 1.22465e-16 1.99037
0.39112 0.0980171 1.96629
0.196506 0.0980171 1.99516
0.196034 1.22465e-16 1.99037
0 0 2
0.196506 0.0980171 1.99516
1.2276e-16 0.0980171 2.00482
0.39112 0.0980171 1.96629
0.196506 0.0980171 1.99516
0.393929 0.19509 1.98042
0.197918 0.19509 2.00949
0.196506 0.0980171 1.99516
1.2276e-16 0.0980171 2.00482
0.197918 0.19509 2.00949
1.23641e-16 0.19509 2.01921
0.77272 0.19509 1.86551
0.586147 0.19509 1.93227
0.781845 0.290285 1.88754
0.593069 0.290285 1.95509
0.586147 0.19509 1.93227
0.393929 0.19509 1.98042
0.593069 0.290285 1.95509
0.398581 0.290285 2.0038
0.781845 0.290285 1.88754
0.593069 0.290285 1.95509
0.794497 0.382683 1.91809
0.602666 0.382683 1.98672
0.593069 0.290285 1.95509
0.398581 0.290285 2.0038
0.602666 0.382683 1.98672
0.405031 0.382683 2.03623
0.393929 0.19509 1.98042
0.197918 0.19509 2.00949
0.398581 0.290285 2.0038
0.200255 0.290285 2.03322
0.197918 0.19509 2.00949
1.23641e-16 0.19509 2.01921
0.200255 0.290285 2.03322
1.25101e-16 0.290285 2.04306
0.398581 0.290285 2.0038
0.200255 0.290285 2.03322
0.405031 0.382683 2.03623
0.203495 0.382683 2.06612
0.200255 0.290285 2.03322
1.25101e-16 0.290285 2.04306
0.203495 0.382683 2.06612
1.27126e-16 0.382683 2.07612
1.46804 0.382683 1.46804
1.31708 0.382683 1.60486
1.49771 0.471397 1.49771
[...]
POINT_DATA 16384
SCALARS U double 1
LOOKUP_TABLE default
0.0104019 0.00931007 0.0331398 0.0294763 0.00931007 0.00664378 0.0294763 0.0206281 0.0331398 0.0294763 0.187552 0.165719 0.0294763 0.0206281 0.165719 0.11357 0.00664378 0.00372029 0.0206281 0.0111488 0.00372029 0.00158011 0.0111488 0.00446714 0.0206281 0.0111488 0.11357 0.0590095 0.0111488 0.00446714 0.0590095 0.0220741 0.187552 0.165719 0.981673 0.864003 0.165719 0.11357 0.864003 0.583871 0.981673 0.864003 4.32587 3.83528 0.864003 0.583871 3.83528 2.61995 0.11357 0.0590095 0.583871 0.293979 0.0590095 0.0220741 0.293979 0.103047 0.583871 0.293979 2.61995 1.30923 0.293979 0.103047 1.30923 0.435805 0.00158011 0.000472755 0.00446714 0.00120718 0.000472755 8.03961e-05 0.00120718 0.000158793 0.00446714 0.00120718 0.0220741 0.00521873 0.00120718 0.000158793 0.00521873 0.000424102 8.03961e-05 -8.6476e-07 0.000158793 -1.63187e-05 -8.6476e-07 -3.31802e-06 -1.63187e-05 -8.20761e-06 0.000158793 -1.63187e-05 0.000424102 -0.000136653 -1.63187e-05 -8.20761e-06 -0.000136653 -2.89426e-05 0.0220741 0.00521873 0.103047 0.0209496 0.00521873 0.000424102 0.0209496 0.00048412 0.103047 0.0209496 0.435805 0.0738017 0.0209496 0.00048412 0.0738017 -0.00394512 0.000424102 -0.000136653 0.00048412 -0.000778602 -0.000136653 -2.89426e-05 -0.000778602 -6.39812e-05 0.00048412 -0.000778602 -0.00394512 -0.0035186 -0.000778602 -6.39812e-05 -0.0035186 8.87194e-05 4.32587 3.83528 13.5636 12.4552 3.83528 2.61995 12.4552 9.25518 13.5636 12.4552 23.8708 23.3228 12.4552 9.25518 23.3228 20.7947 2.61995 1.30923 9.25518 4.95518 1.30923 0.435805 4.95518 1.63091 9.25518 4.95518 20.7947 14.1767 4.95518 1.63091 14.1767 5.2391 23.8708 23.3228 23.3049 23.5822 23.3228 20.7947 23.5822 24.5816 23.3049 23.5822 21.9607 22.0226 23.5822 24.5816 22.0226 22.0476 20.7947 14.1767 24.5816 24.5554 14.1767 5.2391 24.5554 13.6621 24.5816 24.5554 22.0476 23.7656 24.5554 13.6621 23.7656 24.2626 0.435805 0.0738017 1.63091 0.220726 0.0738017 -0.00394512 0.220726 -0.0380628 1.63091 0.220726 5.2391 0.51877 0.220726 -0.0380628 0.51877 -0.214277 -0.00394512 -0.0035186 -0.0380628 -0.0127074 -0.0035186 8.87194e-05 -0.0127074 0.0019237 -0.0380628 -0.0127074 -0.214277 -0.0329717 -0.0127074 0.0019237 -0.0329717 0.0123044 5.2391 0.51877 13.6621 0.67441 0.51877 -0.214277 0.67441 -0.90887 13.6621 0.67441 24.2626 -0.617331 0.67441 -0.90887 -0.617331 -3.19448 -0.214277 -0.0329717 -0.90887 -0.0368285 -0.0329717 0.0123044 -0.0368285 0.0556073 -0.90887 -0.0368285 -3.19448 0.253502 -0.0368285 0.0556073 0.253502 0.174199 -3.31802e-06 -2.17596e-07 -8.20761e-06 2.94686e-07 -2.17596e-07 1.49148e-07 2.94686e-07 3.86083e-07 -8.20761e-06 2.94686e-07 -2.89426e-05 5.48868e-06 2.94686e-07 3.86083e-07 5.48868e-06 1.26728e-06 1.49148e-07 7.87157e-09 3.86083e-07 -3.09635e-08 7.87157e-09 -8.19389e-09 -3.09635e-08 -1.77e-08 3.86083e-07 -3.09635e-08 1.26728e-06 -3.67545e-07 -3.09635e-08 -1.77e-08 -3.67545e-07 -2.87743e-08 -2.89426e-05 5.48868e-06 -6.39812e-05 3.67603e-05 5.48868e-06 1.26728e-06 3.67603e-05 1.28958e-06 -6.39812e-05 3.67603e-05 8.87194e-05 0.000169228 3.67603e-05 1.28958e-06 0.000169228 -1.80275e-05 1.26728e-06 -3.67545e-07 1.28958e-06 -2.04286e-06 -3.67545e-07 -2.87743e-08 -2.04286e-06 1.96482e-07 1.28958e-06 -2.04286e-06 -1.80275e-05 -6.80117e-06 -2.04286e-06 1.96482e-07 -6.80117e-06 2.00782e-06 -8.19389e-09 3.4123e-10 -1.77e-08 3.73074e-09 3.4123e-10 4.15689e-10 3.73074e-09 4.3767e-10 -1.77e-08 3.73074e-09 -2.87743e-08 2.41781e-08 3.73074e-09 4.3767e-10 2.41781e-08 -2.5153e-09 4.15689e-10 -9.14163e-11 4.3767e-10 -2.96606e-10 -9.14163e-11 2.81371e-13 -2.96606e-10 3.94461e-13 4.3767e-10 -2.96606e-10 -2.5153e-09 -8.5997e-10 -2.96606e-10 3.94461e-13 -8.5997e-10 3.50283e-12 -2.87743e-08 2.41781e-08 1.96482e-07 7.99861e-08 2.41781e-08 -2.5153e-09 7.99861e-08 -2.63951e-08 1.96482e-07 7.99861e-08 2.00782e-06 9.60404e-09 7.99861e-08 -2.63951e-08 9.60404e-09 -1.1861e-07 -2.5153e-09 -8.5997e-10 -2.63951e-08 1.4339e-09 -8.5997e-10 3.50283e-12 1.4339e-09 3.80881e-12 -2.63951e-08 1.4339e-09 -1.1861e-07 2.92108e-08 1.4339e-09 3.80881e-12 2.92108e-08 -5.39525e-11 8.87194e-05 0.000169228 0.0019237 0.00052616 0.000169228 -1.80275e-05 0.00052616 -0.000155914 0.0019237 0.00052616 0.0123044 0.000683015 0.00052616 -0.000155914 0.000683015 -0.000768914 -1.80275e-05 -6.80117e-06 -0.000155914 -6.35317e-06 -6.80117e-06 2.00782e-06 -6.35317e-06 9.80729e-06 -0.000155914 -6.35317e-06 -0.000768914 9.54843e-05 -6.35317e-06 9.80729e-06 9.54843e-05 2.28037e-05 0.0123044 0.000683015 0.0556073 -0.00487634 0.000683015 -0.000768914 -0.00487634 -0.00227224 0.0556073 -0.00487634 0.174199 -0.0408332 -0.00487634 -0.00227224 -0.0408332 -0.00253916 -0.000768914 9.54843e-05 -0.00227224 0.000701551 9.54843e-05 2.28037e-05 0.000701551 -2.6196e-05 -0.00227224 0.000701551 -0.00253916 0.00288777 0.000701551 -2.6196e-05 0.00288777 -0.000550229 2.00782e-06 9.60404e-09 9.80729e-06 -1.71781e-06 9.60404e-09 -1.1861e-07 -1.71781e-06 -1.54252e-07 9.80729e-06 -1.71781e-06 2.28037e-05 -1.04375e-05 -1.71781e-06 -1.54252e-07 -1.04375e-05 1.26885e-06 -1.1861e-07 2.92108e-08 -1.54252e-07 1.35382e-07 2.92108e-08 -5.39525e-11 1.35382e-07 -2.99083e-10 -1.54252e-07 1.35382e-07 1.26885e-06 2.35909e-07 1.35382e-07 -2.99083e-10 2.35909e-07 -1.22928e-09 2.28037e-05 -1.04375e-05 -2.6196e-05 -3.38133e-05 -1.04375e-05 1.26885e-06 -3.38133e-05 1.05797e-05 -2.6196e-05 -3.38133e-05 -0.000550229 -2.26132e-05 -3.38133e-05 1.05797e-05 -2.26132e-05 3.87596e-05 1.26885e-06 2.35909e-07 1.05797e-05 -1.21101e-06 2.35909e-07 -1.22928e-09 -1.21101e-06 2.3373e-09 1.05797e-05 -1.21101e-06 3.87596e-05 -1.06549e-05 -1.21101e-06 2.3373e-09 -1.06549e-05 2.34107e-08 21.9607 22.0226 22.6699 22.5892 22.0226 22.0476 22.5892 22.6296 22.6699 22.5892 22.7556 22.6156 22.5892 22.6296 22.6156 23.1929 22.0476 23.7656 22.6296 20.8936 23.7656 24.2626 20.8936 27.6605 22.6296 20.8936 23.1929 21.0693 20.8936 27.6605 21.0693 27.1407 22.7556 22.6156 22.6539 22.4765 22.6156 23.1929 22.4765 22.9312 22.6539 22.4765 22.6834 22.5076 22.4765 22.9312 22.5076 22.961 23.1929 21.0693 22.9312 21.4853 21.0693 27.1407 21.4853 25.7646 22.9312 21.4853 22.961 21.1492 21.4853 25.7646 21.1492 30.196 24.2626 -0.617331 27.6605 -7.5781 -0.617331 -3.19448 -7.5781 -8.31722 27.6605 -7.5781 27.1407 -23.1678 -7.5781 -8.31722 -23.1678 -13.5305 -3.19448 0.253502 -8.31722 1.91706 0.253502 0.174199 1.91706 0.343904 -8.31722 1.91706 -13.5305 7.41047 1.91706 0.343904 7.41047 0.0486318 27.1407 -23.1678 25.7646 -30.8038 -23.1678 -13.5305 -30.8038 -9.68994 25.7646 -30.8038 30.196 -33.0482 -30.8038 -9.68994 -33.0482 13.7857 -13.5305 7.41047 -9.68994 19.2832 7.41047 0.0486318 19.2832 -3.0315 -9.68994 19.2832 13.7857 29.0248 19.2832 -3.0315 29.0248 -12.3144 22.6834 22.5076 22.4522 22.9569 22.5076 22.961 22.9569 21.3904 22.4522 22.9569 22.4553 22.893 22.9569 21.3904 22.893 21.5412 22.961 21.1492 21.3904 26.729 21.1492 30.196 26.729 -8.65624 21.3904 26.729 21.5412 26.1159 26.729 -8.65624 26.1159 -27.1432 22.4553 22.893 22.4659 22.8703 22.893 21.5412 22.8703 21.6123 22.4659 22.8703 22.4436 22.9161 22.8703 21.6123 22.9161 21.4586 21.5412 26.1159 21.6123 25.9399 26.1159 -27.1432 25.9399 -22.106 21.6123 25.9399 21.4586 26.4738 25.9399 -22.106 26.4738 -26.9891 30.196 -33.0482 -8.65624 -29.4268 -33.0482 13.7857 -29.4268 27.0318 -8.65624 -29.4268 -27.1432 -22.6977 -29.4268 27.0318 -22.6977 28.5731 13.7857 29.0248 27.0318 28.9997 29.0248 -12.3144 28.9997 -27.5913 27.0318 28.9997 28.5731 12.5241 28.9997 -27.5913 12.5241 -34.0773 -27.1432 -22.6977 -22.106 -27.317 -22.6977 28.5731 -27.317 33.7479 -22.106 -27.317 -26.9891 -20.63 -27.317 33.7479 -20.63 35.0511 28.5731 12.5241 33.7479 -25.1519 12.5241 -34.0773 -25.1519 -27.1657 33.7479 -25.1519 35.0511 -28.6083 -25.1519 -27.1657 -28.6083 -16.2157 0.174199 -0.0408332 0.343904 -0.184231 -0.0408332 -0.00253916 -0.184231 0.017276 0.343904 -0.184231 0.0486318 -0.58335 -0.184231 0.017276 -0.58335 0.137972 -0.00253916 0.00288777 0.017276 0.00703326 0.00288777 -0.000550229 0.00703326 -0.00288828 0.017276 0.00703326 0.137972 0.000855576 0.00703326 -0.00288828 0.000855576 -0.00870182 0.0486318 -0.58335 -3.0315 -1.15307 -0.58335 0.137972 -1.15307 0.555764 -3.0315 -1.15307 -12.3144 -0.677972 -1.15307 0.555764 -0.677972 1.56379 0.137972 0.000855576 0.555764 -0.0781436 0.000855576 -0.00870182 -0.0781436 -0.0126433 0.555764 -0.0781436 1.56379 -0.443205 -0.0781436 -0.0126433 -0.443205 0.036563 -0.000550229 -2.26132e-05 -0.00288828 0.000404485 -2.26132e-05 3.87596e-05 0.000404485 4.83674e-05 -0.00288828 0.000404485 -0.00870182 0.00255619 0.000404485 4.83674e-05 0.00255619 -0.000284975 3.87596e-05 -1.06549e-05 4.83674e-05 -3.80309e-05 -1.06549e-05 2.34107e-08 -3.80309e-05 7.2887e-08 4.83674e-05 -3.80309e-05 -0.000284975 -5.06818e-05 -3.80309e-05 7.2887e-08 -5.06818e-05 2.2899e-07 -0.00870182 0.00255619 -0.0126433 0.00903683 0.00255619 -0.000284975 0.00903683 -0.00226293 -0.0126433 0.00903683 0.036563 0.0166134 0.00903683 -0.00226293 0.0166134 -0.00810483 -0.000284975 -5.06818e-05 -0.00226293 0.000266119 -5.06818e-05 2.2899e-07 0.000266119 -5.18552e-07 -0.00226293 0.000266119 -0.00810483 0.00190785 0.000266119 -5.18552e-07 0.00190785 -4.79475e-06 -12.3144 -0.677972 -27.5913 5.68083 -0.677972 1.56379 5.68083 2.55407 -27.5913 5.68083 -34.0773 21.346 5.68083 2.55407 21.346 0.126859 1.56379 -0.443205 2.55407 -1.43523 -0.443205 0.036563 -1.43523 0.304433 2.55407 -1.43523 0.126859 -3.06854 -1.43523 0.304433 -3.06854 1.14629 -34.0773 21.346 -27.1657 34.0588 21.346 0.126859 34.0588 -11.808 -27.1657 34.0588 -16.2157 35.25 34.0588 -11.808 35.25 -30.248 0.126859 -3.06854 -11.808 -3.25292 -3.06854 1.14629 -3.25292 2.86221 -11.808 -3.25292 -30.248 4.54936 -3.25292 2.86221 4.54936 4.38669 0.036563 0.0166134 0.304433 -0.00789047 0.0166134 -0.00810483 -0.00789047 -0.0171817 0.304433 -0.00789047 1.14629 -0.193191 -0.00789047 -0.0171817 -0.193191 -0.00611992 -0.00810483 0.00190785 -0.0171817 0.00673 0.00190785 -4.79475e-06 0.00673 -1.28236e-05 -0.0171817 0.00673 -0.00611992 0.013989 0.00673 -1.28236e-05 0.013989 -3.26735e-05 1.14629 -0.193191 2.86221 -0.837298 -0.193191 -0.00611992 -0.837298 0.119145 2.86221 -0.837298 4.38669 -2.26855 -0.837298 0.119145 -2.26855 0.57365 -0.00611992 0.013989 0.119145 0.00639644 0.013989 -3.26735e-05 0.00639644 -2.30808e-05 0.119145 0.00639644 0.57365 -0.0782088 0.00639644 -2.30808e-05 -0.0782088 0.000241196 22.4436 22.9161 22.4659 22.8703 22.9161 21.4586 22.8703 21.6123 22.4659 22.8703 22.4553 22.893 22.8703 21.6123 22.893 21.5412 21.4586 26.4741 21.6123 25.9398 26.4741 -26.9908 25.9398 -22.1058 21.6123 25.9398 21.5412 26.116 25.9398 -22.1058 26.116 -27.1439 22.4553 22.893 22.4522 22.9569 22.893 21.5412 22.9569 21.3904 22.4522 22.9569 22.6834 22.5076 22.9569 21.3904 22.5076 22.961 21.5412 26.116 21.3904 26.729 26.116 -27.1439 26.729 -8.65523 21.3904 26.729 22.961 21.1491 26.729 -8.65523 21.1491 30.1963 -26.9908 -20.6237 -22.1058 -27.3183 -20.6237 35.0507 -27.3183 33.7486 -22.1058 -27.3183 -27.1439 -22.6962 -27.3183 33.7486 -22.6962 28.5646 35.0507 -28.6138 33.7486 -25.1476 -28.6138 -16.1973 -25.1476 -27.1707 33.7486 -25.1476 28.5646 12.5608 -25.1476 -27.1707 12.5608 -34.0826 -27.1439 -22.6962 -8.65523 -29.4263 -22.6962 28.5646 -29.4263 27.0277 -8.65523 -29.4263 30.1963 -33.0496 -29.4263 27.0277 -33.0496 13.7961 28.5646 12.5608 27.0277 29 12.5608 -34.0826 29 -27.578 27.0277 29 13.7961 29.026 29 -27.578 29.026 -12.3009 22.6834 22.5076 22.6539 22.4765 22.5076 22.961 22.4765 22.9312 22.6539 22.4765 22.7556 22.6156 22.4765 22.9312 22.6156 23.1929 22.961 21.1491 22.9312 21.4852 21.1491 30.1963 21.4852 25.7648 22.9312 21.4852 23.1929 21.0693 21.4852 25.7648 21.0693 27.1408 22.7556 22.6156 22.6699 22.5892 22.6156 23.1929 22.5892 22.6296 22.6699 22.5892 21.9607 22.0226 22.5892 22.6296 22.0226 22.0476 23.1929 21.0693 22.6296 20.8936 21.0693 27.1408 20.8936 27.6604 22.6296 20.8936 22.0476 23.7656 20.8936 27.6604 23.7656 24.2626 30.1963 -33.0496 25.7648 -30.8055 -33.0496 13.7961 -30.8055 -9.68084 25.7648 -30.8055 27.1408 -23.1674 -30.8055 -9.68084 -23.1674 -13.5268 13.7961 29.026 -9.68084 19.2904 29.026 -12.3009 19.2904 -3.02569 -9.68084 19.2904 -13.5268 7.41468 19.2904 -3.02569 7.41468 0.0507064 27.1408 -23.1674 27.6604 -7.57723 -23.1674 -13.5268 -7.57723 -8.31578 27.6604 -7.57723 24.2626 -0.616987 -7.57723 -8.31578 -0.616987 -3.19402 -13.5268 7.41468 -8.31578 1.91847 7.41468 0.0507064 1.91847 0.34461 -8.31578 1.91847 -3.19402 0.253886 1.91847 0.34461 0.253886 0.17441 -16.1973 35.2468 -27.1707 34.0616 35.2468 -30.247 34.0616 -11.8092 -27.1707 34.0616 -34.0826 21.355 34.0616 -11.8092 21.355 0.125509 -30.247 4.54878 -11.8092 -3.25276 4.54878 4.38501 -3.25276 2.8616 -11.8092 -3.25276 0.125509 -3.06837 -3.25276 2.8616 -3.06837 1.14613 -34.0826 21.355 -27.578 5.68526 21.355 0.125509 5.68526 2.55419 -27.578 5.68526 -12.3009 -0.675718 5.68526 2.55419 -0.675718 1.564 0.125509 -3.06837 2.55419 -1.43532 -3.06837 1.14613 -1.43532 0.304432 2.55419 -1.43532 1.564 -0.443259 -1.43532 0.304432 -0.443259 0.0365703 4.38501 -2.26905 2.8616 -0.837512 -2.26905 0.573694 -0.837512 0.119162 2.8616 -0.837512 1.14613 -0.193268 -0.837512 0.119162 -0.193268 -0.00611547 0.573694 -0.0782153 0.119162 0.00639853 -0.0782153 0.000233533 0.00639853 -2.77521e-05 0.119162 0.00639853 -0.00611547 0.0139917 0.00639853 -2.77521e-05 0.0139917 -3.4681e-05 1.14613 -0.193268 0.304432 -0.00791865 -0.193268 -0.00611547 -0.00791865 -0.0171799 0.304432 -0.00791865 0.0365703 0.0166083 -0.00791865 -0.0171799 0.0166083 -0.00810486 -0.00611547 0.0139917 -0.0171799 0.00673127 0.0139917 -3.4681e-05 0.00673127 -1.33564e-05 -0.0171799 0.00673127 -0.00810486 0.00190845 0.00673127 -1.33564e-05 0.00190845 -4.92016e-06 -12.3009 -0.675718 -3.02569 -1.15167 -0.675718 1.564 -1.15167 0.555841 -3.02569 -1.15167 0.0507064 -0.582739 -1.15167 0.555841 -0.582739 0.138027 1.564 -0.443259 0.555841 -0.078152 -0.443259 0.0365703 -0.078152 -0.0126425 0.555841 -0.078152 0.138027 0.000852577 -0.078152 -0.0126425 0.000852577 -0.00870119 0.0507064 -0.582739 0.34461 -0.184012 -0.582739 0.138027 -0.184012 0.0173077 0.34461 -0.184012 0.17441 -0.0407603 -0.184012 0.0173077 -0.0407603 -0.00252545 0.138027 0.000852577 0.0173077 0.00703291 0.000852577 -0.00870119 0.00703291 -0.00288811 0.0173077 0.00703291 -0.00252545 0.00288839 0.00703291 -0.00288811 0.00288839 -0.000550245 0.0365703 0.0166083 -0.0126425 0.00903741 0.0166083 -0.00810486 0.00903741 -0.00226303 -0.0126425 0.00903741 -0.00870119 0.00255675 0.00903741 -0.00226303 0.00255675 -0.000284894 -0.00810486 0.00190845 -0.00226303 0.000266317 0.00190845 -4.92016e-06 0.000266317 -5.20544e-07 -0.00226303 0.000266317 -0.000284894 -5.06401e-05 0.000266317 -5.20544e-07 -5.06401e-05 2.45769e-07 -0.00870119 0.00255675 -0.00288811 0.000404752 0.00255675 -0.000284894 0.000404752 4.84322e-05 -0.00288811 0.000404752 -0.000550245 -2.25141e-05 0.000404752 4.84322e-05 -2.25141e-05 3.87908e-05 -0.000284894 -5.06401e-05 4.84322e-05 -3.80179e-05 -5.06401e-05 2.45769e-07 -3.80179e-05 7.90576e-08 4.84322e-05 -3.80179e-05 3.87908e-05 -1.06489e-05 -3.80179e-05 7.90576e-08 -1.06489e-05 2.49876e-08 21.9607 22.0226 23.3049 23.5822 22.0226 22.0476 23.5822 24.5816 23.3049 23.5822 23.8708 23.3228 23.5822 24.5816 23.3228 20.7947 22.0476 23.7656 24.5816 24.5554 23.7656 24.2626 24.5554 13.6621 24.5816 24.5554 20.7947 14.1766 24.5554 13.6621 14.1766 5.2391 23.8708 23.3228 13.5636 12.4552 23.3228 20.7947 12.4552 9.25517 13.5636 12.4552 4.32587 3.83528 12.4552 9.25517 3.83528 2.61994 20.7947 14.1766 9.25517 4.95517 14.1766 5.2391 4.95517 1.63091 9.25517 4.95517 2.61994 1.30923 4.95517 1.63091 1.30923 0.435802 24.2626 -0.616987 13.6621 0.674487 -0.616987 -3.19402 0.674487 -0.908762 13.6621 0.674487 5.2391 0.518778 0.674487 -0.908762 0.518778 -0.214259 -3.19402 0.253886 -0.908762 -0.0367354 0.253886 0.17441 -0.0367354 0.0556633 -0.908762 -0.0367354 -0.214259 -0.0329526 -0.0367354 0.0556633 -0.0329526 0.0123174 5.2391 0.518778 1.63091 0.220724 0.518778 -0.214259 0.220724 -0.0380615 1.63091 0.220724 0.435802 0.0737999 0.220724 -0.0380615 0.0737999 -0.0039458 -0.214259 -0.0329526 -0.0380615 -0.0127045 -0.0329526 0.0123174 -0.0127045 0.0019263 -0.0380615 -0.0127045 -0.0039458 -0.00351849 -0.0127045 0.0019263 -0.00351849 8.91015e-05 4.32587 3.83528 0.981673 0.864002 3.83528 2.61994 0.864002 0.58387 0.981673 0.864002 0.187552 0.165719 0.864002 0.58387 0.165719 0.11357 2.61994 1.30923 0.58387 0.293978 1.30923 0.435802 0.293978 0.103046 0.58387 0.293978 0.11357 0.0590092 0.293978 0.103046 0.0590092 0.0220738 0.187552 0.165719 0.0331398 0.0294763 0.165719 0.11357 0.0294763 0.020628 0.0331398 0.0294763 0.0104019 0.00931007 0.0294763 0.020628 0.00931007 0.00664378 0.11357 0.0590092 0.020628 0.0111487 0.0590092 0.0220738 0.0111487 0.00446706 0.020628 0.0111487 0.00664378 0.00372029 0.0111487 0.00446706 0.00372029 0.00158011 0.435802 0.0737999 0.103046 0.0209488 0.0737999 -0.0039458 0.0209488 0.000483712 0.103046 0.0209488 0.0220738 0.00521848 0.0209488 0.000483712 0.00521848 0.000423958 -0.0039458 -0.00351849 0.000483712 -0.000778737 -0.00351849 8.91015e-05 -0.000778737 -6.39612e-05 0.000483712 -0.000778737 0.000423958 -0.000136721 -0.000778737 -6.39612e-05 -0.000136721 -2.89561e-05 0.0220738 0.00521848 0.00446706 0.00120711 0.00521848 0.000423958 0.00120711 0.000158755 0.00446706 0.00120711 0.00158011 0.000472755 0.00120711 0.000158755 0.000472755 8.03961e-05 0.000423958 -0.000136721 0.000158755 -1.63403e-05 -0.000136721 -2.89561e-05 -1.63403e-05 -8.21354e-06 0.000158755 -1.63403e-05 8.03961e-05 -8.6476e-07 -1.63403e-05 -8.21354e-06 -8.6476e-07 -3.31802e-06 0.17441 -0.0407603 0.0556633 -0.0048543 -0.0407603 -0.00252545 -0.0048543 -0.00226717 0.0556633 -0.0048543 0.0123174 0.000688952 -0.0048543 -0.00226717 0.000688952 -0.000767272 -0.00252545 0.00288839 -0.00226717 0.000702024 0.00288839 -0.000550245 0.000702024 -2.62011e-05 -0.00226717 0.000702024 -0.000767272 9.57083e-05 0.000702024 -2.62011e-05 9.57083e-05 2.28087e-05 0.0123174 0.000688952 0.0019263 0.000527562 0.000688952 -0.000767272 0.000527562 -0.000155449 0.0019263 0.000527562 8.91015e-05 0.000169507 0.000527562 -0.000155449 0.000169507 -1.7912e-05 -0.000767272 9.57083e-05 -0.000155449 -6.26961e-06 9.57083e-05 2.28087e-05 -6.26961e-06 9.81161e-06 -0.000155449 -6.26961e-06 -1.7912e-05 -6.77649e-06 -6.26961e-06 9.81161e-06 -6.77649e-06 2.01005e-06 -0.000550245 -2.25141e-05 -2.62011e-05 -3.37899e-05 -2.25141e-05 3.87908e-05 -3.37899e-05 1.05925e-05 -2.62011e-05 -3.37899e-05 2.28087e-05 -1.0433e-05 -3.37899e-05 1.05925e-05 -1.0433e-05 1.2727e-06 3.87908e-05 -1.06489e-05 1.05925e-05 -1.20861e-06 -1.06489e-05 2.49876e-08 -1.20861e-06 2.75515e-09 1.05925e-05 -1.20861e-06 1.2727e-06 2.36893e-07 -1.20861e-06 2.75515e-09 2.36893e-07 -1.10905e-09 2.28087e-05 -1.0433e-05 9.81161e-06 -1.71709e-06 -1.0433e-05 1.2727e-06 -1.71709e-06 -1.53319e-07 9.81161e-06 -1.71709e-06 2.01005e-06 9.66977e-09 -1.71709e-06 -1.53319e-07 9.66977e-09 -1.18471e-07 1.2727e-06 2.36893e-07 -1.53319e-07 1.35687e-07 2.36893e-07 -1.10905e-09 1.35687e-07 -2.67048e-10 -1.53319e-07 1.35687e-07 -1.18471e-07 2.93016e-08 1.35687e-07 -2.67048e-10 2.93016e-08 -4.78185e-11 8.91015e-05 0.000169507 -6.39612e-05 3.68032e-05 0.000169507 -1.7912e-05 3.68032e-05 1.31408e-06 -6.39612e-05 3.68032e-05 -2.89561e-05 5.49112e-06 3.68032e-05 1.31408e-06 5.49112e-06 1.27194e-06 -1.7912e-05 -6.77649e-06 1.31408e-06 -2.0364e-06 -6.77649e-06 2.01005e-06 -2.0364e-06 1.97163e-07 1.31408e-06 -2.0364e-06 1.27194e-06 -3.66375e-07 -2.0364e-06 1.97163e-07 -3.66375e-07 -2.85065e-08 -2.89561e-05 5.49112e-06 -8.21354e-06 2.93631e-07 5.49112e-06 1.27194e-06 2.93631e-07 3.86767e-07 -8.21354e-06 2.93631e-07 -3.31802e-06 -2.17596e-07 2.93631e-07 3.86767e-07 -2.17596e-07 1.49148e-07 1.27194e-06 -3.66375e-07 3.86767e-07 -3.07347e-08 -3.66375e-07 -2.85065e-08 -3.07347e-08 -1.76447e-08 3.86767e-07 -3.07347e-08 1.49148e-07 7.87157e-09 -3.07347e-08 -1.76447e-08 7.87157e-09 -8.19389e-09 2.01005e-06 9.66977e-09 1.97163e-07 7.99632e-08 9.66977e-09 -1.18471e-07 7.99632e-08 