# vtk DataFile Version 3.0
#This file was generated by the deal.II library on 2023/3/8 at 18:39:22
ASCII
DATASET UNSTRUCTURED_GRID

FIELD FieldData 2
CYCLE 1 1 int
64
TIME 1 1 double
0.128
POINTS 1024 double
2 0 0
1.84776 1.22465e-16 0.765367
2.07612 0.382683 0
1.91809 0.382683 0.794497
1.84776 1.22465e-16 0.765367
1.41421 1.22465e-16 1.41421
1.91809 0.382683 0.794497
1.46804 0.382683 1.46804
2.07612 0.382683 0
1.91809 0.382683 0.794497
2.29289 0.707107 0
2.11836 0.707107 0.877452
1.91809 0.382683 0.794497
1.46804 0.382683 1.46804
2.11836 0.707107 0.877452
1.62132 0.707107 1.62132
1.41421 1.22465e-16 1.41421
0.765367 1.22465e-16 1.84776
1.46804 0.382683 1.46804
0.794497 0.382683 1.91809
0.765367 1.22465e-16 1.84776
0 0 2
0.794497 0.382683 1.91809
1.27126e-16 0.382683 2.07612
1.46804 0.382683 1.46804
0.794497 0.382683 1.91809
1.62132 0.707107 1.62132
0.877452 0.707107 2.11836
0.794497 0.382683 1.91809
1.27126e-16 0.382683 2.07612
0.877452 0.707107 2.11836
1.40399e-16 0.707107 2.29289
2.29289 0.707107 0
2.11836 0.707107 0.877452
2.61732 0.92388 0
2.41809 0.92388 1.0016
2.11836 0.707107 0.877452
1.62132 0.707107 1.62132
2.41809 0.92388 1.0016
1.85072 0.92388 1.85072
2.61732 0.92388 0
2.41809 0.92388 1.0016
3 1 0
2.77164 1 1.14805
2.41809 0.92388 1.0016
1.85072 0.92388 1.85072
2.77164 1 1.14805
2.12132 1 2.12132
1.62132 0.707107 1.62132
0.877452 0.707107 2.11836
1.85072 0.92388 1.85072
1.0016 0.92388 2.41809
0.877452 0.707107 2.11836
1.40399e-16 0.707107 2.29289
1.0016 0.92388 2.41809
1.60264e-16 0.92388 2.61732
1.85072 0.92388 1.85072
1.0016 0.92388 2.41809
2.12132 1 2.12132
1.14805 1 2.77164
1.0016 0.92388 2.41809
1.60264e-16 0.92388 2.61732
1.14805 1 2.77164
0 1 3
3 -1 0
2.77164 -1 1.14805
2.61732 -0.92388 0
2.41809 -0.92388 1.0016
2.77164 -1 1.14805
2.12132 -1 2.12132
2.41809 -0.92388 1.0016
1.85072 -0.92388 1.85072
2.61732 -0.92388 0
2.41809 -0.92388 1.0016
2.29289 -0.707107 0
2.11836 -0.707107 0.877452
2.41809 -0.92388 1.0016
1.85072 -0.92388 1.85072
2.11836 -0.707107 0.877452
1.62132 -0.707107 1.62132
2.12132 -1 2.12132
1.14805 -1 2.77164
1.85072 -0.92388 1.85072
1.0016 -0.92388 2.41809
1.14805 -1 2.77164
0 -1 3
1.0016 -0.92388 2.41809
1.60264e-16 -0.92388 2.61732
1.85072 -0.92388 1.85072
1.0016 -0.92388 2.41809
1.62132 -0.707107 1.62132
0.877452 -0.707107 2.11836
1.0016 -0.92388 2.41809
1.60264e-16 -0.92388 2.61732
0.877452 -0.707107 2.11836
1.40399e-16 -0.707107 2.29289
2.29289 -0.707107 0
2.11836 -0.707107 0.877452
2.07612 -0.382683 0
1.91809 -0.382683 0.794497
2.11836 -0.707107 0.877452
1.62132 -0.707107 1.62132
1.91809 -0.382683 0.794497
1.46804 -0.382683 1.46804
2.07612 -0.382683 0
1.91809 -0.382683 0.794497
2 0 0
1.84776 1.22465e-16 0.765367
1.91809 -0.382683 0.794497
1.46804 -0.382683 1.46804
1.84776 1.22465e-16 0.765367
1.41421 1.22465e-16 1.41421
1.62132 -0.707107 1.62132
0.877452 -0.707107 2.11836
1.46804 -0.382683 1.46804
0.794497 -0.382683 1.91809
0.877452 -0.707107 2.11836
1.40399e-16 -0.707107 2.29289
0.794497 -0.382683 1.91809
1.27126e-16 -0.382683 2.07612
1.46804 -0.382683 1.46804
0.794497 -0.382683 1.91809
1.41421 1.22465e-16 1.41421
0.765367 1.22465e-16 1.84776
0.794497 -0.382683 1.91809
1.27126e-16 -0.382683 2.07612
0.765367 1.22465e-16 1.84776
0 0 2
4 0 0
3.69552 0 1.53073
3.92388 -0.382683 0
3.62519 -0.382683 1.5016
3.69552 0 1.53073
2.82843 0 2.82843
3.62519 -0.382683 1.5016
2.7746 -0.382683 2.7746
3.92388 -0.382683 0
3.62519 -0.382683 1.5016
3.70711 -0.707107 0
3.42492 -0.707107 1.41865
3.62519 -0.382683 1.5016
2.7746 -0.382683 2.7746
3.42492 -0.707107 1.41865
2.62132 -0.707107 2.62132
2.82843 0 2.82843
1.53073 0 3.69552
2.7746 -0.382683 2.7746
1.5016 -0.382683 3.62519
1.53073 0 3.69552
0 0 4
1.5016 -0.382683 3.62519
2.40268e-16 -0.382683 3.92388
2.7746 -0.382683 2.7746
1.5016 -0.382683 3.62519
2.62132 -0.707107 2.62132
1.41865 -0.707107 3.42492
1.5016 -0.382683 3.62519
2.40268e-16 -0.382683 3.92388
1.41865 -0.707107 3.42492
2.26995e-16 -0.707107 3.70711
3.70711 -0.707107 0
3.42492 -0.707107 1.41865
3.38268 -0.92388 0
3.12519 -0.92388 1.2945
3.42492 -0.707107 1.41865
2.62132 -0.707107 2.62132
3.12519 -0.92388 1.2945
2.39192 -0.92388 2.39192
3.38268 -0.92388 0
3.12519 -0.92388 1.2945
3 -1 0
2.77164 -1 1.14805
3.12519 -0.92388 1.2945
2.39192 -0.92388 2.39192
2.77164 -1 1.14805
2.12132 -1 2.12132
2.62132 -0.707107 2.62132
1.41865 -0.707107 3.42492
2.39192 -0.92388 2.39192
1.2945 -0.92388 3.12519
1.41865 -0.707107 3.42492
2.26995e-16 -0.707107 3.70711
1.2945 -0.92388 3.12519
2.0713e-16 -0.92388 3.38268
2.39192 -0.92388 2.39192
1.2945 -0.92388 3.12519
2.12132 -1 2.12132
1.14805 -1 2.77164
1.2945 -0.92388 3.12519
2.0713e-16 -0.92388 3.38268
1.14805 -1 2.77164
0 -1 3
3 1 0
2.77164 1 1.14805
3.38268 0.92388 0
3.12519 0.92388 1.2945
2.77164 1 1.14805
2.12132 1 2.12132
3.12519 0.92388 1.2945
2.39192 0.92388 2.39192
3.38268 0.92388 0
3.12519 0.92388 1.2945
3.70711 0.707107 0
3.42492 0.707107 1.41865
3.12519 0.92388 1.2945
2.39192 0.92388 2.39192
3.42492 0.707107 1.41865
2.62132 0.707107 2.62132
2.12132 1 2.12132
1.14805 1 2.77164
2.39192 0.92388 2.39192
1.2945 0.92388 3.12519
1.14805 1 2.77164
0 1 3
1.2945 0.92388 3.12519
2.0713e-16 0.92388 3.38268
2.39192 0.92388 2.39192
1.2945 0.92388 3.12519
2.62132 0.707107 2.62132
1.41865 0.707107 3.42492
1.2945 0.92388 3.12519
2.0713e-16 0.92388 3.38268
1.41865 0.707107 3.42492
2.26995e-16 0.707107 3.70711
3.70711 0.707107 0
3.42492 0.707107 1.41865
3.92388 0.382683 0
3.62519 0.382683 1.5016
3.42492 0.707107 1.41865
2.62132 0.707107 2.62132
3.62519 0.382683 1.5016
2.7746 0.382683 2.7746
3.92388 0.382683 0
3.62519 0.382683 1.5016
4 0 0
3.69552 0 1.53073
3.62519 0.382683 1.5016
2.7746 0.382683 2.7746
3.69552 0 1.53073
2.82843 0 2.82843
2.62132 0.707107 2.62132
1.41865 0.707107 3.42492
2.7746 0.382683 2.7746
1.5016 0.382683 3.62519
1.41865 0.707107 3.42492
2.26995e-16 0.707107 3.70711
1.5016 0.382683 3.62519
2.40268e-16 0.382683 3.92388
2.7746 0.382683 2.7746
1.5016 0.382683 3.62519
2.82843 0 2.82843
1.53073 0 3.69552
1.5016 0.382683 3.62519
2.40268e-16 0.382683 3.92388
1.53073 0 3.69552
0 0 4
0 0 2
-0.765367 1.22465e-16 1.84776
1.27126e-16 0.382683 2.07612
-0.794497 0.382683 1.91809
-0.765367 1.22465e-16 1.84776
-1.41421 1.22465e-16 1.41421
-0.794497 0.382683 1.91809
-1.46804 0.382683 1.46804
1.27126e-16 0.382683 2.07612
-0.794497 0.382683 1.91809
1.40399e-16 0.707107 2.29289
-0.877452 0.707107 2.11836
-0.794497 0.382683 1.91809
-1.46804 0.382683 1.46804
-0.877452 0.707107 2.11836
-1.62132 0.707107 1.62132
-1.41421 1.22465e-16 1.41421
-1.84776 1.22465e-16 0.765367
-1.46804 0.382683 1.46804
-1.91809 0.382683 0.794497
-1.84776 1.22465e-16 0.765367
-2 0 0
-1.91809 0.382683 0.794497
-2.07612 0.382683 2.54251e-16
-1.46804 0.382683 1.46804
-1.91809 0.382683 0.794497
-1.62132 0.707107 1.62132
-2.11836 0.707107 0.877452
-1.91809 0.382683 0.794497
-2.07612 0.382683 2.54251e-16
-2.11836 0.707107 0.877452
-2.29289 0.707107 2.80798e-16
1.40399e-16 0.707107 2.29289
-0.877452 0.707107 2.11836
1.60264e-16 0.92388 2.61732
-1.0016 0.92388 2.41809
-0.877452 0.707107 2.11836
-1.62132 0.707107 1.62132
-1.0016 0.92388 2.41809
-1.85072 0.92388 1.85072
1.60264e-16 0.92388 2.61732
-1.0016 0.92388 2.41809
0 1 3
-1.14805 1 2.77164
-1.0016 0.92388 2.41809
-1.85072 0.92388 1.85072
-1.14805 1 2.77164
-2.12132 1 2.12132
-1.62132 0.707107 1.62132
-2.11836 0.707107 0.877452
-1.85072 0.92388 1.85072
-2.41809 0.92388 1.0016
-2.11836 0.707107 0.877452
-2.29289 0.707107 2.80798e-16
-2.41809 0.92388 1.0016
-2.61732 0.92388 3.20529e-16
-1.85072 0.92388 1.85072
-2.41809 0.92388 1.0016
-2.12132 1 2.12132
-2.77164 1 1.14805
-2.41809 0.92388 1.0016
-2.61732 0.92388 3.20529e-16
-2.77164 1 1.14805
-3 1 0
0 -1 3
-1.14805 -1 2.77164
1.60264e-16 -0.92388 2.61732
-1.0016 -0.92388 2.41809
-1.14805 -1 2.77164
-2.12132 -1 2.12132
-1.0016 -0.92388 2.41809
-1.85072 -0.92388 1.85072
1.60264e-16 -0.92388 2.61732
-1.0016 -0.92388 2.41809
1.40399e-16 -0.707107 2.29289
-0.877452 -0.707107 2.11836
-1.0016 -0.92388 2.41809
-1.85072 -0.92388 1.85072
-0.877452 -0.707107 2.11836
-1.62132 -0.707107 1.62132
-2.12132 -1 2.12132
-2.77164 -1 1.14805
-1.85072 -0.92388 1.85072
-2.41809 -0.92388 1.0016
-2.77164 -1 1.14805
-3 -1 0
-2.41809 -0.92388 1.0016
-2.61732 -0.92388 3.20529e-16
-1.85072 -0.92388 1.85072
-2.41809 -0.92388 1.0016
-1.62132 -0.707107 1.62132
-2.11836 -0.707107 0.877452
-2.41809 -0.92388 1.0016
-2.61732 -0.92388 3.20529e-16
-2.11836 -0.707107 0.877452
-2.29289 -0.707107 2.80798e-16
1.40399e-16 -0.707107 2.29289
-0.877452 -0.707107 2.11836
1.27126e-16 -0.382683 2.07612
-0.794497 -0.382683 1.91809
-0.877452 -0.707107 2.11836
-1.62132 -0.707107 1.62132
-0.794497 -0.382683 1.91809
-1.46804 -0.382683 1.46804
1.27126e-16 -0.382683 2.07612
-0.794497 -0.382683 1.91809
0 0 2
-0.765367 1.22465e-16 1.84776
-0.794497 -0.382683 1.91809
-1.46804 -0.382683 1.46804
-0.765367 1.22465e-16 1.84776
-1.41421 1.22465e-16 1.41421
-1.62132 -0.707107 1.62132
-2.11836 -0.707107 0.877452
-1.46804 -0.382683 1.46804
-1.91809 -0.382683 0.794497
-2.11836 -0.707107 0.877452
-2.29289 -0.707107 2.80798e-16
-1.91809 -0.382683 0.794497
-2.07612 -0.382683 2.54251e-16
-1.46804 -0.382683 1.46804
-1.91809 -0.382683 0.794497
-1.41421 1.22465e-16 1.41421
-1.84776 1.22465e-16 0.765367
-1.91809 -0.382683 0.794497
-2.07612 -0.382683 2.54251e-16
-1.84776 1.22465e-16 0.765367
-2 0 0
0 0 4
-1.53073 0 3.69552
2.40268e-16 -0.382683 3.92388
-1.5016 -0.382683 3.62519
-1.53073 0 3.69552
-2.82843 0 2.82843
-1.5016 -0.382683 3.62519
-2.7746 -0.382683 2.7746
2.40268e-16 -0.382683 3.92388
-1.5016 -0.382683 3.62519
2.26995e-16 -0.707107 3.70711
-1.41865 -0.707107 3.42492
-1.5016 -0.382683 3.62519
-2.7746 -0.382683 2.7746
-1.41865 -0.707107 3.42492
-2.62132 -0.707107 2.62132
-2.82843 0 2.82843
-3.69552 0 1.53073
-2.7746 -0.382683 2.7746
-3.62519 -0.382683 1.5016
-3.69552 0 1.53073
-4 0 0
-3.62519 -0.382683 1.5016
-3.92388 -0.382683 4.80537e-16
-2.7746 -0.382683 2.7746
-3.62519 -0.382683 1.5016
-2.62132 -0.707107 2.62132
-3.42492 -0.707107 1.41865
[...]
POINT_DATA 1024
SCALARS U double 1
LOOKUP_TABLE default
0.0345136 0.0345268 0.0407044 0.0406716 0.0345268 0.0353319 0.0406716 0.0416352 0.0407044 0.0406716 0.0663783 0.066202 0.0406716 0.0416352 0.066202 0.0674234 0.0353319 0.0285157 0.0416352 0.0344828 0.0285157 0.00562241 0.0344828 0.00836859 0.0416352 0.0344828 0.0674234 0.0606357 0.0344828 0.00836859 0.0606357 0.0347337 0.0663783 0.066202 0.0684208 0.0681274 0.066202 0.0674234 0.0681274 0.0693945 0.0684208 0.0681274 0.0679789 0.0676293 0.0681274 0.0693945 0.0676293 0.068778 0.0674234 0.0606357 0.0693945 0.0639768 0.0606357 0.0347337 0.0639768 0.0357688 0.0693945 0.0639768 0.068778 0.0648885 0.0639768 0.0357688 0.0648885 0.03409 0.000737909 0.000732471 0.00328799 0.00327519 0.000732471 0.000751041 0.00327519 0.00337108 0.00328799 0.00327519 0.0121805 0.0121577 0.00327519 0.00337108 0.0121577 0.0124805 0.000751041 0.00068811 0.00337108 0.00283644 0.00068811 4.88761e-05 0.00283644 0.00045011 0.00337108 0.00283644 0.0124805 0.0103102 0.00283644 0.00045011 0.0103102 0.00186798 0.0121805 0.0121577 0.02509 0.0250862 0.0121577 0.0124805 0.0250862 0.0256854 0.02509 0.0250862 0.0345136 0.0345268 0.0250862 0.0256854 0.0345268 0.0353319 0.0124805 0.0103102 0.0256854 0.0208972 0.0103102 0.00186798 0.0208972 0.00428189 0.0256854 0.0208972 0.0353319 0.0285157 0.0208972 0.00428189 0.0285157 0.00562241 0.0350006 0.034848 0.0263755 0.0262564 0.034848 0.0350596 0.0262564 0.0264335 0.0263755 0.0262564 0.0138056 0.0137339 0.0262564 0.0264335 0.0137339 0.0138611 0.0350596 0.0354687 0.0264335 0.0266621 0.0354687 -0.000928932 0.0266621 -0.000267488 0.0264335 0.0266621 0.0138611 0.0138479 0.0266621 -0.000267488 0.0138479 -7.79978e-05 0.0138056 0.0137339 0.00420925 0.004183 0.0137339 0.0138611 0.004183 0.00423853 0.00420925 0.004183 0.000737909 0.000732471 0.004183 0.00423853 0.000732471 0.000751041 0.0138611 0.0138479 0.00423853 0.00416896 0.0138479 -7.79978e-05 0.00416896 3.05591e-05 0.00423853 0.00416896 0.000751041 0.00068811 0.00416896 3.05591e-05 0.00068811 4.88761e-05 0.0679789 0.0676293 0.0685405 0.0681977 0.0676293 0.068778 0.0681977 0.0691336 0.0685405 0.0681977 0.0661768 0.0658754 0.0681977 0.0691336 0.0658754 0.0665808 0.068778 0.0648885 0.0691336 0.0666034 0.0648885 0.03409 0.0666034 0.0336404 0.0691336 0.0666034 0.0665808 0.0651524 0.0666034 0.0336404 0.0651524 0.0301951 0.0661768 0.0658754 0.0405838 0.0403958 0.0658754 0.0665808 0.0403958 0.0407045 0.0405838 0.0403958 0.0350006 0.034848 0.0403958 0.0407045 0.034848 0.0350596 0.0665808 0.0651524 0.0407045 0.0408476 0.0651524 0.0301951 0.0408476 0.00162229 0.0407045 0.0408476 0.0350596 0.0354687 0.0408476 0.00162229 0.0354687 -0.000928932 0.00562241 -0.00076651 0.00836859 -0.000959941 -0.00076651 3.41962e-05 -0.000959941 6.7137e-05 0.00836859 -0.000959941 0.0347337 -0.00319463 -0.000959941 6.7137e-05 -0.00319463 0.000610136 3.41962e-05 2.19002e-05 6.7137e-05 2.08846e-05 2.19002e-05 -1.74666e-05 2.08846e-05 -2.04703e-05 6.7137e-05 2.08846e-05 0.000610136 -0.000108436 2.08846e-05 -2.04703e-05 -0.000108436 3.2678e-05 0.0347337 -0.00319463 0.0357688 -0.00356883 -0.00319463 0.000610136 -0.00356883 0.000781856 0.0357688 -0.00356883 0.03409 -0.00365604 -0.00356883 0.000781856 -0.00365604 0.00088504 0.000610136 -0.000108436 0.000781856 -0.000168204 -0.000108436 3.2678e-05 -0.000168204 6.38147e-05 0.000781856 -0.000168204 0.00088504 -0.000216484 -0.000168204 6.38147e-05 -0.000216484 9.34119e-05 4.88761e-05 -1.47358e-05 0.00045011 -8.45734e-05 -1.47358e-05 3.68575e-06 -8.45734e-05 1.1841e-05 0.00045011 -8.45734e-05 0.00186798 -0.00029582 -8.45734e-05 1.1841e-05 -0.00029582 2.90417e-05 3.68575e-06 -8.27786e-07 1.1841e-05 -4.60176e-07 -8.27786e-07 3.04068e-07 -4.60176e-07 -6.87124e-07 1.1841e-05 -4.60176e-07 2.90417e-05 3.00921e-06 -4.60176e-07 -6.87124e-07 3.00921e-06 -4.50732e-06 0.00186798 -0.00029582 0.00428189 -0.000576062 -0.00029582 2.90417e-05 -0.000576062 3.39191e-05 0.00428189 -0.000576062 0.00562241 -0.00076651 -0.000576062 3.39191e-05 -0.00076651 3.41962e-05 2.90417e-05 3.00921e-06 3.39191e-05 1.38287e-05 3.00921e-06 -4.50732e-06 1.38287e-05 -1.21799e-05 3.39191e-05 1.38287e-05 3.41962e-05 2.19002e-05 1.38287e-05 -1.21799e-05 2.19002e-05 -1.74666e-05 -0.000928932 -8.19564e-05 -0.000267488 -0.000109853 -8.19564e-05 7.35994e-05 -0.000109853 6.64222e-05 -0.000267488 -0.000109853 -7.79978e-05 -8.10857e-05 -0.000109853 6.64222e-05 -8.10857e-05 4.0216e-05 7.35994e-05 -3.14322e-05 6.64222e-05 -2.61765e-05 -3.14322e-05 1.84269e-05 -2.61765e-05 1.48804e-05 6.64222e-05 -2.61765e-05 4.0216e-05 -1.4786e-05 -2.61765e-05 1.48804e-05 -1.4786e-05 8.11281e-06 -7.79978e-05 -8.10857e-05 3.05591e-05 -3.85664e-05 -8.10857e-05 4.0216e-05 -3.85664e-05 1.543e-05 3.05591e-05 -3.85664e-05 4.88761e-05 -1.47358e-05 -3.85664e-05 1.543e-05 -1.47358e-05 3.68575e-06 4.0216e-05 -1.4786e-05 1.543e-05 -5.13945e-06 -1.4786e-05 8.11281e-06 -5.13945e-06 2.66327e-06 1.543e-05 -5.13945e-06 3.68575e-06 -8.27786e-07 -5.13945e-06 2.66327e-06 -8.27786e-07 3.04068e-07 0.03409 -0.00365604 0.0336404 -0.00369036 -0.00365604 0.00088504 -0.00369036 0.00094452 0.0336404 -0.00369036 0.0301951 -0.0033907 -0.00369036 0.00094452 -0.0033907 0.00090313 0.00088504 -0.000216484 0.00094452 -0.000247833 -0.000216484 9.34119e-05 -0.000247833 0.000114046 0.00094452 -0.000247833 0.00090313 -0.000248459 -0.000247833 0.000114046 -0.000248459 0.000119077 0.0301951 -0.0033907 0.00162229 -0.000360237 -0.0033907 0.00090313 -0.000360237 0.000143447 0.00162229 -0.000360237 -0.000928932 -8.19564e-05 -0.000360237 0.000143447 -8.19564e-05 7.35994e-05 0.00090313 -0.000248459 0.000143447 -4.9072e-05 -0.000248459 0.000119077 -4.9072e-05 2.61947e-05 0.000143447 -4.9072e-05 7.35994e-05 -3.14322e-05 -4.9072e-05 2.61947e-05 -3.14322e-05 1.84269e-05 -1.74666e-05 2.18987e-05 -2.04703e-05 2.08829e-05 2.18987e-05 3.41946e-05 2.08829e-05 6.71355e-05 -2.04703e-05 2.08829e-05 3.2678e-05 -0.000108437 2.08829e-05 6.71355e-05 -0.000108437 0.000610134 3.41946e-05 -0.000766506 6.71355e-05 -0.000959943 -0.000766506 0.00562241 -0.000959943 0.00836859 6.71355e-05 -0.000959943 0.000610134 -0.00319463 -0.000959943 0.00836859 -0.00319463 0.0347337 3.2678e-05 -0.000108437 6.38147e-05 -0.000168206 -0.000108437 0.000610134 -0.000168206 0.000781856 6.38147e-05 -0.000168206 9.34119e-05 -0.000216483 -0.000168206 0.000781856 -0.000216483 0.000885041 0.000610134 -0.00319463 0.000781856 -0.00356883 -0.00319463 0.0347337 -0.00356883 0.0357688 0.000781856 -0.00356883 0.000885041 -0.00365604 -0.00356883 0.0357688 -0.00365604 0.03409 3.04068e-07 -8.26325e-07 -6.87124e-07 -4.58666e-07 -8.26325e-07 3.68674e-06 -4.58666e-07 1.1842e-05 -6.87124e-07 -4.58666e-07 -4.50732e-06 3.01007e-06 -4.58666e-07 1.1842e-05 3.01007e-06 2.90423e-05 3.68674e-06 -1.47355e-05 1.1842e-05 -8.45691e-05 -1.47355e-05 4.88786e-05 -8.45691e-05 0.000450108 1.1842e-05 -8.45691e-05 2.90423e-05 -0.000295818 -8.45691e-05 0.000450108 -0.000295818 0.00186798 -4.50732e-06 3.01007e-06 -1.21799e-05 1.38271e-05 3.01007e-06 2.90423e-05 1.38271e-05 3.39205e-05 -1.21799e-05 1.38271e-05 -1.74666e-05 2.18987e-05 1.38271e-05 3.39205e-05 2.18987e-05 3.41946e-05 2.90423e-05 -0.000295818 3.39205e-05 -0.000576061 -0.000295818 0.00186798 -0.000576061 0.00428189 3.39205e-05 -0.000576061 3.41946e-05 -0.000766506 -0.000576061 0.00428189 -0.000766506 0.00562241 1.84269e-05 -3.14327e-05 1.48804e-05 -2.61757e-05 -3.14327e-05 7.36023e-05 -2.61757e-05 6.64237e-05 1.48804e-05 -2.61757e-05 8.11281e-06 -1.47881e-05 -2.61757e-05 6.64237e-05 -1.47881e-05 4.02191e-05 7.36023e-05 -8.19588e-05 6.64237e-05 -0.000109855 -8.19588e-05 -0.000928931 -0.000109855 -0.000267486 6.64237e-05 -0.000109855 4.02191e-05 -8.1088e-05 -0.000109855 -0.000267486 -8.1088e-05 -7.79962e-05 8.11281e-06 -1.47881e-05 2.66327e-06 -5.13867e-06 -1.47881e-05 4.02191e-05 -5.13867e-06 1.54286e-05 2.66327e-06 -5.13867e-06 3.04068e-07 -8.26325e-07 -5.13867e-06 1.54286e-05 -8.26325e-07 3.68674e-06 4.02191e-05 -8.1088e-05 1.54286e-05 -3.85647e-05 -8.1088e-05 -7.79962e-05 -3.85647e-05 3.05576e-05 1.54286e-05 -3.85647e-05 3.68674e-06 -1.47355e-05 -3.85647e-05 3.05576e-05 -1.47355e-05 4.88786e-05 9.34119e-05 -0.000216483 0.000114046 -0.000247833 -0.000216483 0.000885041 -0.000247833 0.000944523 0.000114046 -0.000247833 0.000119077 -0.000248459 -0.000247833 0.000944523 -0.000248459 0.000903134 0.000885041 -0.00365604 0.000944523 -0.00369036 -0.00365604 0.03409 -0.00369036 0.0336404 0.000944523 -0.00369036 0.000903134 -0.0033907 -0.00369036 0.0336404 -0.0033907 0.0301951 0.000119077 -0.000248459 2.61947e-05 -4.90718e-05 -0.000248459 0.000903134 -4.90718e-05 0.000143451 2.61947e-05 -4.90718e-05 1.84269e-05 -3.14327e-05 -4.90718e-05 0.000143451 -3.14327e-05 7.36023e-05 0.000903134 -0.0033907 0.000143451 -0.000360239 -0.0033907 0.0301951 -0.000360239 0.00162229 0.000143451 -0.000360239 7.36023e-05 -8.19588e-05 -0.000360239 0.00162229 -8.19588e-05 -0.000928931 0.00562241 0.0285157 0.00836859 0.0344828 0.0285157 0.0353319 0.0344828 0.0416352 0.00836859 0.0344828 0.0347337 0.0606357 0.0344828 0.0416352 0.0606357 0.0674234 0.0353319 0.0345268 0.0416352 0.0406716 0.0345268 0.0345136 0.0406716 0.0407044 0.0416352 0.0406716 0.0674234 0.066202 0.0406716 0.0407044 0.066202 0.0663783 0.0347337 0.0606357 0.0357688 0.0639769 0.0606357 0.0674234 0.0639769 0.0693944 0.0357688 0.0639769 0.03409 0.0648885 0.0639769 0.0693944 0.0648885 0.068778 0.0674234 0.066202 0.0693944 0.0681274 0.066202 0.0663783 0.0681274 0.0684208 0.0693944 0.0681274 0.068778 0.0676293 0.0681274 0.0684208 0.0676293 0.0679789 4.88786e-05 0.000688112 0.000450108 0.00283644 0.000688112 0.000751041 0.00283644 0.00337108 0.000450108 0.00283644 0.00186798 0.0103102 0.00283644 0.00337108 0.0103102 0.0124805 0.000751041 0.000732465 0.00337108 0.00327519 0.000732465 0.000737909 0.00327519 0.00328799 0.00337108 0.00327519 0.0124805 0.0121577 0.00327519 0.00328799 0.0121577 0.0121805 0.00186798 0.0103102 0.00428189 0.0208972 0.0103102 0.0124805 0.0208972 0.0256854 0.00428189 0.0208972 0.00562241 0.0285157 0.0208972 0.0256854 0.0285157 0.0353319 0.0124805 0.0121577 0.0256854 0.0250862 0.0121577 0.0121805 0.0250862 0.02509 0.0256854 0.0250862 0.0353319 0.0345268 0.0250862 0.02509 0.0345268 0.0345136 -0.000928931 0.0354687 -0.000267486 0.0266621 0.0354687 0.0350596 0.0266621 0.0264335 -0.000267486 0.0266621 -7.79962e-05 0.0138479 0.0266621 0.0264335 0.0138479 0.013861 0.0350596 0.034848 0.0264335 0.0262564 0.034848 0.0350006 0.0262564 0.0263755 0.0264335 0.0262564 0.013861 0.0137339 0.0262564 0.0263755 0.0137339 0.0138056 -7.79962e-05 0.0138479 3.05576e-05 0.00416896 0.0138479 0.013861 0.00416896 0.00423852 3.05576e-05 0.00416896 4.88786e-05 0.000688112 0.00416896 0.00423852 0.000688112 0.000751041 0.013861 0.0137339 0.00423852 0.004183 0.0137339 0.0138056 0.004183 0.00420925 0.00423852 0.004183 0.000751041 0.000732465 0.004183 0.00420925 0.000732465 0.000737909 0.03409 0.0648885 0.0336404 0.0666034 0.0648885 0.068778 0.0666034 0.0691336 0.0336404 0.0666034 0.0301951 0.0651524 0.0666034 0.0691336 0.0651524 0.0665809 0.068778 0.0676293 0.0691336 0.0681977 0.0676293 0.0679789 0.0681977 0.0685405 0.0691336 0.0681977 0.0665809 0.0658754 0.0681977 0.0685405 0.0658754 0.0661768 0.0301951 0.0651524 0.00162229 0.0408476 0.0651524 0.0665809 0.0408476 0.0407045 0.00162229 0.0408476 -0.000928931 0.0354687 0.0408476 0.0407045 0.0354687 0.0350596 0.0665809 0.0658754 0.0407045 0.0403958 0.0658754 0.0661768 0.0403958 0.0405838 0.0407045 0.0403958 0.0350596 0.034848 0.0403958 0.0405838 0.034848 0.0350006 
