# vtk DataFile Version 3.0
#This file was generated by the deal.II library on 2023/3/8 at 18:39:23
ASCII
DATASET UNSTRUCTURED_GRID

FIELD FieldData 2
CYCLE 1 1 int
87
TIME 1 1 double
0.174
POINTS 1024 double
2 0 0
1.84776 1.22465e-16 0.765367
2.07612 0.382683 0
1.91809 0.382683 0.794497
1.84776 1.22465e-16 0.765367
1.41421 1.22465e-16 1.41421
1.91809 0.382683 0.794497
1.46804 0.382683 1.46804
2.07612 0.382683 0
1.91809 0.382683 0.794497
2.29289 0.707107 0
2.11836 0.707107 0.877452
1.91809 0.382683 0.794497
1.46804 0.382683 1.46804
2.11836 0.707107 0.877452
1.62132 0.707107 1.62132
1.41421 1.22465e-16 1.41421
0.765367 1.22465e-16 1.84776
1.46804 0.382683 1.46804
0.794497 0.382683 1.91809
0.765367 1.22465e-16 1.84776
0 0 2
0.794497 0.382683 1.91809
1.27126e-16 0.382683 2.07612
1.46804 0.382683 1.46804
0.794497 0.382683 1.91809
1.62132 0.707107 1.62132
0.877452 0.707107 2.11836
0.794497 0.382683 1.91809
1.27126e-16 0.382683 2.07612
0.877452 0.707107 2.11836
1.40399e-16 0.707107 2.29289
2.29289 0.707107 0
2.11836 0.707107 0.877452
2.61732 0.92388 0
2.41809 0.92388 1.0016
2.11836 0.707107 0.877452
1.62132 0.707107 1.62132
2.41809 0.92388 1.0016
1.85072 0.92388 1.85072
2.61732 0.92388 0
2.41809 0.92388 1.0016
3 1 0
2.77164 1 1.14805
2.41809 0.92388 1.0016
1.85072 0.92388 1.85072
2.77164 1 1.14805
2.12132 1 2.12132
1.62132 0.707107 1.62132
0.877452 0.707107 2.11836
1.85072 0.92388 1.85072
1.0016 0.92388 2.41809
0.877452 0.707107 2.11836
1.40399e-16 0.707107 2.29289
1.0016 0.92388 2.41809
1.60264e-16 0.92388 2.61732
1.85072 0.92388 1.85072
1.0016 0.92388 2.41809
2.12132 1 2.12132
1.14805 1 2.77164
1.0016 0.92388 2.41809
1.60264e-16 0.92388 2.61732
1.14805 1 2.77164
0 1 3
3 -1 0
2.77164 -1 1.14805
2.61732 -0.92388 0
2.41809 -0.92388 1.0016
2.77164 -1 1.14805
2.12132 -1 2.12132
2.41809 -0.92388 1.0016
1.85072 -0.92388 1.85072
2.61732 -0.92388 0
2.41809 -0.92388 1.0016
2.29289 -0.707107 0
2.11836 -0.707107 0.877452
2.41809 -0.92388 1.0016
1.85072 -0.92388 1.85072
2.11836 -0.707107 0.877452
1.62132 -0.707107 1.62132
2.12132 -1 2.12132
1.14805 -1 2.77164
1.85072 -0.92388 1.85072
1.0016 -0.92388 2.41809
1.14805 -1 2.77164
0 -1 3
1.0016 -0.92388 2.41809
1.60264e-16 -0.92388 2.61732
1.85072 -0.92388 1.85072
1.0016 -0.92388 2.41809
1.62132 -0.707107 1.62132
0.877452 -0.707107 2.11836
1.0016 -0.92388 2.41809
1.60264e-16 -0.92388 2.61732
0.877452 -0.707107 2.11836
1.40399e-16 -0.707107 2.29289
2.29289 -0.707107 0
2.11836 -0.707107 0.877452
2.07612 -0.382683 0
1.91809 -0.382683 0.794497
2.11836 -0.707107 0.877452
1.62132 -0.707107 1.62132
1.91809 -0.382683 0.794497
1.46804 -0.382683 1.46804
2.07612 -0.382683 0
1.91809 -0.382683 0.794497
2 0 0
1.84776 1.22465e-16 0.765367
1.91809 -0.382683 0.794497
1.46804 -0.382683 1.46804
1.84776 1.22465e-16 0.765367
1.41421 1.22465e-16 1.41421
1.62132 -0.707107 1.62132
0.877452 -0.707107 2.11836
1.46804 -0.382683 1.46804
0.794497 -0.382683 1.91809
0.877452 -0.707107 2.11836
1.40399e-16 -0.707107 2.29289
0.794497 -0.382683 1.91809
1.27126e-16 -0.382683 2.07612
1.46804 -0.382683 1.46804
0.794497 -0.382683 1.91809
1.41421 1.22465e-16 1.41421
0.765367 1.22465e-16 1.84776
0.794497 -0.382683 1.91809
1.27126e-16 -0.382683 2.07612
0.765367 1.22465e-16 1.84776
0 0 2
4 0 0
3.69552 0 1.53073
3.92388 -0.382683 0
3.62519 -0.382683 1.5016
3.69552 0 1.53073
2.82843 0 2.82843
3.62519 -0.382683 1.5016
2.7746 -0.382683 2.7746
3.92388 -0.382683 0
3.62519 -0.382683 1.5016
3.70711 -0.707107 0
3.42492 -0.707107 1.41865
3.62519 -0.382683 1.5016
2.7746 -0.382683 2.7746
3.42492 -0.707107 1.41865
2.62132 -0.707107 2.62132
2.82843 0 2.82843
1.53073 0 3.69552
2.7746 -0.382683 2.7746
1.5016 -0.382683 3.62519
1.53073 0 3.69552
0 0 4
1.5016 -0.382683 3.62519
2.40268e-16 -0.382683 3.92388
2.7746 -0.382683 2.7746
1.5016 -0.382683 3.62519
2.62132 -0.707107 2.62132
1.41865 -0.707107 3.42492
1.5016 -0.382683 3.62519
2.40268e-16 -0.382683 3.92388
1.41865 -0.707107 3.42492
2.26995e-16 -0.707107 3.70711
3.70711 -0.707107 0
3.42492 -0.707107 1.41865
3.38268 -0.92388 0
3.12519 -0.92388 1.2945
3.42492 -0.707107 1.41865
2.62132 -0.707107 2.62132
3.12519 -0.92388 1.2945
2.39192 -0.92388 2.39192
3.38268 -0.92388 0
3.12519 -0.92388 1.2945
3 -1 0
2.77164 -1 1.14805
3.12519 -0.92388 1.2945
2.39192 -0.92388 2.39192
2.77164 -1 1.14805
2.12132 -1 2.12132
2.62132 -0.707107 2.62132
1.41865 -0.707107 3.42492
2.39192 -0.92388 2.39192
1.2945 -0.92388 3.12519
1.41865 -0.707107 3.42492
2.26995e-16 -0.707107 3.70711
1.2945 -0.92388 3.12519
2.0713e-16 -0.92388 3.38268
2.39192 -0.92388 2.39192
1.2945 -0.92388 3.12519
2.12132 -1 2.12132
1.14805 -1 2.77164
1.2945 -0.92388 3.12519
2.0713e-16 -0.92388 3.38268
1.14805 -1 2.77164
0 -1 3
3 1 0
2.77164 1 1.14805
3.38268 0.92388 0
3.12519 0.92388 1.2945
2.77164 1 1.14805
2.12132 1 2.12132
3.12519 0.92388 1.2945
2.39192 0.92388 2.39192
3.38268 0.92388 0
3.12519 0.92388 1.2945
3.70711 0.707107 0
3.42492 0.707107 1.41865
3.12519 0.92388 1.2945
2.39192 0.92388 2.39192
3.42492 0.707107 1.41865
2.62132 0.707107 2.62132
2.12132 1 2.12132
1.14805 1 2.77164
2.39192 0.92388 2.39192
1.2945 0.92388 3.12519
1.14805 1 2.77164
0 1 3
1.2945 0.92388 3.12519
2.0713e-16 0.92388 3.38268
2.39192 0.92388 2.39192
1.2945 0.92388 3.12519
2.62132 0.707107 2.62132
1.41865 0.707107 3.42492
1.2945 0.92388 3.12519
2.0713e-16 0.92388 3.38268
1.41865 0.707107 3.42492
2.26995e-16 0.707107 3.70711
3.70711 0.707107 0
3.42492 0.707107 1.41865
3.92388 0.382683 0
3.62519 0.382683 1.5016
3.42492 0.707107 1.41865
2.62132 0.707107 2.62132
3.62519 0.382683 1.5016
2.7746 0.382683 2.7746
3.92388 0.382683 0
3.62519 0.382683 1.5016
4 0 0
3.69552 0 1.53073
3.62519 0.382683 1.5016
2.7746 0.382683 2.7746
3.69552 0 1.53073
2.82843 0 2.82843
2.62132 0.707107 2.62132
1.41865 0.707107 3.42492
2.7746 0.382683 2.7746
1.5016 0.382683 3.62519
1.41865 0.707107 3.42492
2.26995e-16 0.707107 3.70711
1.5016 0.382683 3.62519
2.40268e-16 0.382683 3.92388
2.7746 0.382683 2.7746
1.5016 0.382683 3.62519
2.82843 0 2.82843
1.53073 0 3.69552
1.5016 0.382683 3.62519
2.40268e-16 0.382683 3.92388
1.53073 0 3.69552
0 0 4
0 0 2
-0.765367 1.22465e-16 1.84776
1.27126e-16 0.382683 2.07612
-0.794497 0.382683 1.91809
-0.765367 1.22465e-16 1.84776
-1.41421 1.22465e-16 1.41421
-0.794497 0.382683 1.91809
-1.46804 0.382683 1.46804
1.27126e-16 0.382683 2.07612
-0.794497 0.382683 1.91809
1.40399e-16 0.707107 2.29289
-0.877452 0.707107 2.11836
-0.794497 0.382683 1.91809
-1.46804 0.382683 1.46804
-0.877452 0.707107 2.11836
-1.62132 0.707107 1.62132
-1.41421 1.22465e-16 1.41421
-1.84776 1.22465e-16 0.765367
-1.46804 0.382683 1.46804
-1.91809 0.382683 0.794497
-1.84776 1.22465e-16 0.765367
-2 0 0
-1.91809 0.382683 0.794497
-2.07612 0.382683 2.54251e-16
-1.46804 0.382683 1.46804
-1.91809 0.382683 0.794497
-1.62132 0.707107 1.62132
-2.11836 0.707107 0.877452
-1.91809 0.382683 0.794497
-2.07612 0.382683 2.54251e-16
-2.11836 0.707107 0.877452
-2.29289 0.707107 2.80798e-16
1.40399e-16 0.707107 2.29289
-0.877452 0.707107 2.11836
1.60264e-16 0.92388 2.61732
-1.0016 0.92388 2.41809
-0.877452 0.707107 2.11836
-1.62132 0.707107 1.62132
-1.0016 0.92388 2.41809
-1.85072 0.92388 1.85072
1.60264e-16 0.92388 2.61732
-1.0016 0.92388 2.41809
0 1 3
-1.14805 1 2.77164
-1.0016 0.92388 2.41809
-1.85072 0.92388 1.85072
-1.14805 1 2.77164
-2.12132 1 2.12132
-1.62132 0.707107 1.62132
-2.11836 0.707107 0.877452
-1.85072 0.92388 1.85072
-2.41809 0.92388 1.0016
-2.11836 0.707107 0.877452
-2.29289 0.707107 2.80798e-16
-2.41809 0.92388 1.0016
-2.61732 0.92388 3.20529e-16
-1.85072 0.92388 1.85072
-2.41809 0.92388 1.0016
-2.12132 1 2.12132
-2.77164 1 1.14805
-2.41809 0.92388 1.0016
-2.61732 0.92388 3.20529e-16
-2.77164 1 1.14805
-3 1 0
0 -1 3
-1.14805 -1 2.77164
1.60264e-16 -0.92388 2.61732
-1.0016 -0.92388 2.41809
-1.14805 -1 2.77164
-2.12132 -1 2.12132
-1.0016 -0.92388 2.41809
-1.85072 -0.92388 1.85072
1.60264e-16 -0.92388 2.61732
-1.0016 -0.92388 2.41809
1.40399e-16 -0.707107 2.29289
-0.877452 -0.707107 2.11836
-1.0016 -0.92388 2.41809
-1.85072 -0.92388 1.85072
-0.877452 -0.707107 2.11836
-1.62132 -0.707107 1.62132
-2.12132 -1 2.12132
-2.77164 -1 1.14805
-1.85072 -0.92388 1.85072
-2.41809 -0.92388 1.0016
-2.77164 -1 1.14805
-3 -1 0
-2.41809 -0.92388 1.0016
-2.61732 -0.92388 3.20529e-16
-1.85072 -0.92388 1.85072
-2.41809 -0.92388 1.0016
-1.62132 -0.707107 1.62132
-2.11836 -0.707107 0.877452
-2.41809 -0.92388 1.0016
-2.61732 -0.92388 3.20529e-16
-2.11836 -0.707107 0.877452
-2.29289 -0.707107 2.80798e-16
1.40399e-16 -0.707107 2.29289
-0.877452 -0.707107 2.11836
1.27126e-16 -0.382683 2.07612
-0.794497 -0.382683 1.91809
-0.877452 -0.707107 2.11836
-1.62132 -0.707107 1.62132
-0.794497 -0.382683 1.91809
-1.46804 -0.382683 1.46804
1.27126e-16 -0.382683 2.07612
-0.794497 -0.382683 1.91809
0 0 2
-0.765367 1.22465e-16 1.84776
-0.794497 -0.382683 1.91809
-1.46804 -0.382683 1.46804
-0.765367 1.22465e-16 1.84776
-1.41421 1.22465e-16 1.41421
-1.62132 -0.707107 1.62132
-2.11836 -0.707107 0.877452
-1.46804 -0.382683 1.46804
-1.91809 -0.382683 0.794497
-2.11836 -0.707107 0.877452
-2.29289 -0.707107 2.80798e-16
-1.91809 -0.382683 0.794497
-2.07612 -0.382683 2.54251e-16
-1.46804 -0.382683 1.46804
-1.91809 -0.382683 0.794497
-1.41421 1.22465e-16 1.41421
-1.84776 1.22465e-16 0.765367
-1.91809 -0.382683 0.794497
-2.07612 -0.382683 2.54251e-16
-1.84776 1.22465e-16 0.765367
-2 0 0
0 0 4
-1.53073 0 3.69552
2.40268e-16 -0.382683 3.92388
-1.5016 -0.382683 3.62519
-1.53073 0 3.69552
-2.82843 0 2.82843
-1.5016 -0.382683 3.62519
-2.7746 -0.382683 2.7746
2.40268e-16 -0.382683 3.92388
-1.5016 -0.382683 3.62519
2.26995e-16 -0.707107 3.70711
-1.41865 -0.707107 3.42492
-1.5016 -0.382683 3.62519
-2.7746 -0.382683 2.7746
-1.41865 -0.707107 3.42492
-2.62132 -0.707107 2.62132
-2.82843 0 2.82843
-3.69552 0 1.53073
-2.7746 -0.382683 2.7746
-3.62519 -0.382683 1.5016
-3.69552 0 1.53073
-4 0 0
-3.62519 -0.382683 1.5016
-3.92388 -0.382683 4.80537e-16
-2.7746 -0.382683 2.7746
-3.62519 -0.382683 1.5016
-2.62132 -0.707107 2.62132
-3.42492 -0.707107 1.41865
[...]
POINT_DATA 1024
SCALARS U double 1
LOOKUP_TABLE default
0.0338554 0.0340788 0.0489547 0.0491763 0.0340788 0.0342442 0.0491763 0.049477 0.0489547 0.0491763 0.068754 0.0688907 0.0491763 0.049477 0.0688907 0.06944 0.0342442 0.0266093 0.049477 0.0412872 0.0266093 0.00814881 0.0412872 0.0186836 0.049477 0.0412872 0.06944 0.0620212 0.0412872 0.0186836 0.0620212 0.0361436 0.068754 0.0688907 0.0782177 0.0782021 0.0688907 0.06944 0.0782021 0.0790354 0.0782177 0.0782021 0.0795453 0.0793803 0.0782021 0.0790354 0.0793803 0.0803842 0.06944 0.0620212 0.0790354 0.0727472 0.0620212 0.0361436 0.0727472 0.0447959 0.0790354 0.0727472 0.0803842 0.0752837 0.0727472 0.0447959 0.0752837 0.0456635 0.00266712 0.00265467 0.00502019 0.00503242 0.00265467 0.00272357 0.00503242 0.00512527 0.00502019 0.00503242 0.0129695 0.0130342 0.00503242 0.00512527 0.0130342 0.0131846 0.00272357 0.00236925 0.00512527 0.00408302 0.00236925 0.000291105 0.00408302 0.000950871 0.00512527 0.00408302 0.0131846 0.0102983 0.00408302 0.000950871 0.0102983 0.0027204 0.0129695 0.0130342 0.023565 0.0237184 0.0130342 0.0131846 0.0237184 0.0238726 0.023565 0.0237184 0.0338554 0.0340788 0.0237184 0.0238726 0.0340788 0.0342442 0.0131846 0.0102983 0.0238726 0.0183674 0.0102983 0.0027204 0.0183674 0.00500762 0.0238726 0.0183674 0.0342442 0.0266093 0.0183674 0.00500762 0.0266093 0.00814881 0.0344653 0.0342249 0.0251421 0.0249589 0.0342249 0.0348308 0.0249589 0.0254251 0.0251421 0.0249589 0.0149457 0.0148338 0.0249589 0.0254251 0.0148338 0.0151362 0.0348308 0.0335134 0.0254251 0.0243914 0.0335134 0.0016912 0.0243914 0.000415147 0.0254251 0.0243914 0.0151362 0.014384 0.0243914 0.000415147 0.014384 0.000546066 0.0149457 0.0148338 0.00632968 0.00628072 0.0148338 0.0151362 0.00628072 0.0064281 0.00632968 0.00628072 0.00266712 0.00265467 0.00628072 0.0064281 0.00265467 0.00272357 0.0151362 0.014384 0.0064281 0.00599696 0.014384 0.000546066 0.00599696 0.000323065 0.0064281 0.00599696 0.00272357 0.00236925 0.00599696 0.000323065 0.00236925 0.000291105 0.0795453 0.0793803 0.0781232 0.077866 0.0793803 0.0803842 0.077866 0.0788798 0.0781232 0.077866 0.0677822 0.0674923 0.077866 0.0788798 0.0674923 0.0684042 0.0803842 0.0752837 0.0788798 0.0749419 0.0752837 0.0456635 0.0749419 0.0436293 0.0788798 0.0749419 0.0684042 0.0655522 0.0749419 0.0436293 0.0655522 0.0322704 0.0677822 0.0674923 0.0483326 0.048055 0.0674923 0.0684042 0.048055 0.0488069 0.0483326 0.048055 0.0344653 0.0342249 0.048055 0.0488069 0.0342249 0.0348308 0.0684042 0.0655522 0.0488069 0.0469165 0.0655522 0.0322704 0.0469165 0.0123467 0.0488069 0.0469165 0.0348308 0.0335134 0.0469165 0.0123467 0.0335134 0.0016912 0.00814881 -0.000216031 0.0186836 0.000168124 -0.000216031 -0.000146196 0.000168124 -0.000313235 0.0186836 0.000168124 0.0361436 0.000249438 0.000168124 -0.000313235 0.000249438 -0.000441014 -0.000146196 5.03549e-05 -0.000313235 0.000106386 5.03549e-05 -1.90094e-05 0.000106386 -4.7185e-05 -0.000313235 0.000106386 -0.000441014 0.000174012 0.000106386 -4.7185e-05 0.000174012 -9.0827e-05 0.0361436 0.000249438 0.0447959 -0.000664634 0.000249438 -0.000441014 -0.000664634 -0.000240382 0.0447959 -0.000664634 0.0456635 -0.00179414 -0.000664634 -0.000240382 -0.00179414 0.000108423 -0.000441014 0.000174012 -0.000240382 0.000149431 0.000174012 -9.0827e-05 0.000149431 -9.38771e-05 -0.000240382 0.000149431 0.000108423 5.92519e-05 0.000149431 -9.38771e-05 5.92519e-05 -5.74038e-05 0.000291105 -5.89582e-05 0.000950871 -9.61734e-05 -5.89582e-05 9.87399e-06 -9.61734e-05 -2.18463e-06 0.000950871 -9.61734e-05 0.0027204 -0.000184746 -9.61734e-05 -2.18463e-06 -0.000184746 -2.99086e-05 9.87399e-06 -1.23476e-06 -2.18463e-06 4.73457e-06 -1.23476e-06 1.16618e-07 4.73457e-06 -2.90024e-06 -2.18463e-06 4.73457e-06 -2.99086e-05 1.62648e-05 4.73457e-06 -2.90024e-06 1.62648e-05 -7.74101e-06 0.0027204 -0.000184746 0.00500762 -0.000261437 -0.000184746 -2.99086e-05 -0.000261437 -7.79565e-05 0.00500762 -0.000261437 0.00814881 -0.000216031 -0.000261437 -7.79565e-05 -0.000216031 -0.000146196 -2.99086e-05 1.62648e-05 -7.79565e-05 3.1175e-05 1.62648e-05 -7.74101e-06 3.1175e-05 -1.24144e-05 -7.79565e-05 3.1175e-05 -0.000146196 5.03549e-05 3.1175e-05 -1.24144e-05 5.03549e-05 -1.90094e-05 0.0016912 -0.000486939 0.000415147 -0.000327395 -0.000486939 0.00015409 -0.000327395 0.000110099 0.000415147 -0.000327395 0.000546066 -0.000228605 -0.000327395 0.000110099 -0.000228605 7.06892e-05 0.00015409 -4.41486e-05 0.000110099 -3.26695e-05 -4.41486e-05 2.06448e-05 -3.26695e-05 1.56156e-05 0.000110099 -3.26695e-05 7.06892e-05 -1.97031e-05 -3.26695e-05 1.56156e-05 -1.97031e-05 8.97927e-06 0.000546066 -0.000228605 0.000323065 -0.000113766 -0.000228605 7.06892e-05 -0.000113766 3.18263e-05 0.000323065 -0.000113766 0.000291105 -5.89582e-05 -0.000113766 3.18263e-05 -5.89582e-05 9.87399e-06 7.06892e-05 -1.97031e-05 3.18263e-05 -8.06146e-06 -1.97031e-05 8.97927e-06 -8.06146e-06 3.3669e-06 3.18263e-05 -8.06146e-06 9.87399e-06 -1.23476e-06 -8.06146e-06 3.3669e-06 -1.23476e-06 1.16618e-07 0.0456635 -0.00179414 0.0436293 -0.00252026 -0.00179414 0.000108423 -0.00252026 0.000385448 0.0436293 -0.00252026 0.0322704 -0.00231864 -0.00252026 0.000385448 -0.00231864 0.000451398 0.000108423 5.92519e-05 0.000385448 -2.98654e-05 5.92519e-05 -5.74038e-05 -2.98654e-05 -1.27641e-05 0.000385448 -2.98654e-05 0.000451398 -7.63639e-05 -2.98654e-05 -1.27641e-05 -7.63639e-05 1.8604e-05 0.0322704 -0.00231864 0.0123467 -0.00119977 -0.00231864 0.000451398 -0.00119977 0.00028493 0.0123467 -0.00119977 0.0016912 -0.000486939 -0.00119977 0.00028493 -0.000486939 0.00015409 0.000451398 -7.63639e-05 0.00028493 -6.43118e-05 -7.63639e-05 1.8604e-05 -6.43118e-05 2.45819e-05 0.00028493 -6.43118e-05 0.00015409 -4.41486e-05 -6.43118e-05 2.45819e-05 -4.41486e-05 2.06448e-05 -1.90094e-05 5.03484e-05 -4.7185e-05 0.000106383 5.03484e-05 -0.000146194 0.000106383 -0.000313238 -4.7185e-05 0.000106383 -9.0827e-05 0.000174006 0.000106383 -0.000313238 0.000174006 -0.000441016 -0.000146194 -0.000216033 -0.000313238 0.000168126 -0.000216033 0.0081488 0.000168126 0.0186836 -0.000313238 0.000168126 -0.000441016 0.000249435 0.000168126 0.0186836 0.000249435 0.0361436 -9.0827e-05 0.000174006 -9.38771e-05 0.000149429 0.000174006 -0.000441016 0.000149429 -0.000240382 -9.38771e-05 0.000149429 -5.74038e-05 5.92531e-05 0.000149429 -0.000240382 5.92531e-05 0.000108428 -0.000441016 0.000249435 -0.000240382 -0.000664638 0.000249435 0.0361436 -0.000664638 0.0447959 -0.000240382 -0.000664638 0.000108428 -0.00179414 -0.000664638 0.0447959 -0.00179414 0.0456635 1.16618e-07 -1.23302e-06 -2.90024e-06 4.73823e-06 -1.23302e-06 9.8755e-06 4.73823e-06 -2.18693e-06 -2.90024e-06 4.73823e-06 -7.74101e-06 1.62631e-05 4.73823e-06 -2.18693e-06 1.62631e-05 -2.99056e-05 9.8755e-06 -5.89568e-05 -2.18693e-06 -9.61662e-05 -5.89568e-05 0.000291107 -9.61662e-05 0.000950874 -2.18693e-06 -9.61662e-05 -2.99056e-05 -0.000184747 -9.61662e-05 0.000950874 -0.000184747 0.0027204 -7.74101e-06 1.62631e-05 -1.24144e-05 3.11767e-05 1.62631e-05 -2.99056e-05 3.11767e-05 -7.79583e-05 -1.24144e-05 3.11767e-05 -1.90094e-05 5.03484e-05 3.11767e-05 -7.79583e-05 5.03484e-05 -0.000146194 -2.99056e-05 -0.000184747 -7.79583e-05 -0.000261437 -0.000184747 0.0027204 -0.000261437 0.00500761 -7.79583e-05 -0.000261437 -0.000146194 -0.000216033 -0.000261437 0.00500761 -0.000216033 0.0081488 2.06448e-05 -4.41519e-05 1.56156e-05 -3.26678e-05 -4.41519e-05 0.000154095 -3.26678e-05 0.000110099 1.56156e-05 -3.26678e-05 8.97927e-06 -1.97054e-05 -3.26678e-05 0.000110099 -1.97054e-05 7.06949e-05 0.000154095 -0.000486941 0.000110099 -0.000327394 -0.000486941 0.0016912 -0.000327394 0.000415151 0.000110099 -0.000327394 7.06949e-05 -0.000228607 -0.000327394 0.000415151 -0.000228607 0.000546072 8.97927e-06 -1.97054e-05 3.3669e-06 -8.0631e-06 -1.97054e-05 7.06949e-05 -8.0631e-06 3.1828e-05 3.3669e-06 -8.0631e-06 1.16618e-07 -1.23302e-06 -8.0631e-06 3.1828e-05 -1.23302e-06 9.8755e-06 7.06949e-05 -0.000228607 3.1828e-05 -0.000113769 -0.000228607 0.000546072 -0.000113769 0.000323068 3.1828e-05 -0.000113769 9.8755e-06 -5.89568e-05 -0.000113769 0.000323068 -5.89568e-05 0.000291107 -5.74038e-05 5.92531e-05 -1.27641e-05 -2.98606e-05 5.92531e-05 0.000108428 -2.98606e-05 0.000385447 -1.27641e-05 -2.98606e-05 1.8604e-05 -7.6363e-05 -2.98606e-05 0.000385447 -7.6363e-05 0.000451403 0.000108428 -0.00179414 0.000385447 -0.00252026 -0.00179414 0.0456635 -0.00252026 0.0436293 0.000385447 -0.00252026 0.000451403 -0.00231864 -0.00252026 0.0436293 -0.00231864 0.0322704 1.8604e-05 -7.6363e-05 2.45819e-05 -6.43097e-05 -7.6363e-05 0.000451403 -6.43097e-05 0.000284931 2.45819e-05 -6.43097e-05 2.06448e-05 -4.41519e-05 -6.43097e-05 0.000284931 -4.41519e-05 0.000154095 0.000451403 -0.00231864 0.000284931 -0.00119977 -0.00231864 0.0322704 -0.00119977 0.0123467 0.000284931 -0.00119977 0.000154095 -0.000486941 -0.00119977 0.0123467 -0.000486941 0.0016912 0.0081488 0.0266093 0.0186836 0.0412872 0.0266093 0.0342442 0.0412872 0.049477 0.0186836 0.0412872 0.0361436 0.0620212 0.0412872 0.049477 0.0620212 0.0694399 0.0342442 0.0340788 0.049477 0.0491763 0.0340788 0.0338554 0.0491763 0.0489547 0.049477 0.0491763 0.0694399 0.0688907 0.0491763 0.0489547 0.0688907 0.068754 0.0361436 0.0620212 0.0447959 0.0727472 0.0620212 0.0694399 0.0727472 0.0790354 0.0447959 0.0727472 0.0456635 0.0752837 0.0727472 0.0790354 0.0752837 0.0803842 0.0694399 0.0688907 0.0790354 0.0782021 0.0688907 0.068754 0.0782021 0.0782177 0.0790354 0.0782021 0.0803842 0.0793803 0.0782021 0.0782177 0.0793803 0.0795453 0.000291107 0.00236926 0.000950874 0.00408302 0.00236926 0.00272356 0.00408302 0.00512528 0.000950874 0.00408302 0.0027204 0.0102983 0.00408302 0.00512528 0.0102983 0.0131846 0.00272356 0.00265467 0.00512528 0.00503241 0.00265467 0.00266712 0.00503241 0.00502019 0.00512528 0.00503241 0.0131846 0.0130342 0.00503241 0.00502019 0.0130342 0.0129695 0.0027204 0.0102983 0.00500761 0.0183674 0.0102983 0.0131846 0.0183674 0.0238726 0.00500761 0.0183674 0.0081488 0.0266093 0.0183674 0.0238726 0.0266093 0.0342442 0.0131846 0.0130342 0.0238726 0.0237184 0.0130342 0.0129695 0.0237184 0.023565 0.0238726 0.0237184 0.0342442 0.0340788 0.0237184 0.023565 0.0340788 0.0338554 0.0016912 0.0335134 0.000415151 0.0243914 0.0335134 0.0348308 0.0243914 0.025425 0.000415151 0.0243914 0.000546072 0.014384 0.0243914 0.025425 0.014384 0.0151362 0.0348308 0.0342249 0.025425 0.0249589 0.0342249 0.0344653 0.0249589 0.0251421 0.025425 0.0249589 0.0151362 0.0148338 0.0249589 0.0251421 0.0148338 0.0149457 0.000546072 0.014384 0.000323068 0.00599696 0.014384 0.0151362 0.00599696 0.0064281 0.000323068 0.00599696 0.000291107 0.00236926 0.00599696 0.0064281 0.00236926 0.00272356 0.0151362 0.0148338 0.0064281 0.00628072 0.0148338 0.0149457 0.00628072 0.00632968 0.0064281 0.00628072 0.00272356 0.00265467 0.00628072 0.00632968 0.00265467 0.00266712 0.0456635 0.0752837 0.0436293 0.0749419 0.0752837 0.0803842 0.0749419 0.0788798 0.0436293 0.0749419 0.0322704 0.0655522 0.0749419 0.0788798 0.0655522 0.0684042 0.0803842 0.0793803 0.0788798 0.077866 0.0793803 0.0795453 0.077866 0.0781232 0.0788798 0.077866 0.0684042 0.0674923 0.077866 0.0781232 0.0674923 0.0677822 0.0322704 0.0655522 0.0123467 0.0469165 0.0655522 0.0684042 0.0469165 0.0488069 0.0123467 0.0469165 0.0016912 0.0335134 0.0469165 0.0488069 0.0335134 0.0348308 0.0684042 0.0674923 0.0488069 0.048055 0.0674923 0.0677822 0.048055 0.0483326 0.0488069 0.048055 0.0348308 0.0342249 0.048055 0.0483326 0.0342249 0.0344653 
