# vtk DataFile Version 3.0
#This file was generated by the deal.II library on 2023/3/8 at 18:39:25
ASCII
DATASET UNSTRUCTURED_GRID

FIELD FieldData 2
CYCLE 1 1 int
189
TIME 1 1 double
0.378
POINTS 1024 double
2 0 0
1.84776 1.22465e-16 0.765367
2.07612 0.382683 0
1.91809 0.382683 0.794497
1.84776 1.22465e-16 0.765367
1.41421 1.22465e-16 1.41421
1.91809 0.382683 0.794497
1.46804 0.382683 1.46804
2.07612 0.382683 0
1.91809 0.382683 0.794497
2.29289 0.707107 0
2.11836 0.707107 0.877452
1.91809 0.382683 0.794497
1.46804 0.382683 1.46804
2.11836 0.707107 0.877452
1.62132 0.707107 1.62132
1.41421 1.22465e-16 1.41421
0.765367 1.22465e-16 1.84776
1.46804 0.382683 1.46804
0.794497 0.382683 1.91809
0.765367 1.22465e-16 1.84776
0 0 2
0.794497 0.382683 1.91809
1.27126e-16 0.382683 2.07612
1.46804 0.382683 1.46804
0.794497 0.382683 1.91809
1.62132 0.707107 1.62132
0.877452 0.707107 2.11836
0.794497 0.382683 1.91809
1.27126e-16 0.382683 2.07612
0.877452 0.707107 2.11836
1.40399e-16 0.707107 2.29289
2.29289 0.707107 0
2.11836 0.707107 0.877452
2.61732 0.92388 0
2.41809 0.92388 1.0016
2.11836 0.707107 0.877452
1.62132 0.707107 1.62132
2.41809 0.92388 1.0016
1.85072 0.92388 1.85072
2.61732 0.92388 0
2.41809 0.92388 1.0016
3 1 0
2.77164 1 1.14805
2.41809 0.92388 1.0016
1.85072 0.92388 1.85072
2.77164 1 1.14805
2.12132 1 2.12132
1.62132 0.707107 1.62132
0.877452 0.707107 2.11836
1.85072 0.92388 1.85072
1.0016 0.92388 2.41809
0.877452 0.707107 2.11836
1.40399e-16 0.707107 2.29289
1.0016 0.92388 2.41809
1.60264e-16 0.92388 2.61732
1.85072 0.92388 1.85072
1.0016 0.92388 2.41809
2.12132 1 2.12132
1.14805 1 2.77164
1.0016 0.92388 2.41809
1.60264e-16 0.92388 2.61732
1.14805 1 2.77164
0 1 3
3 -1 0
2.77164 -1 1.14805
2.61732 -0.92388 0
2.41809 -0.92388 1.0016
2.77164 -1 1.14805
2.12132 -1 2.12132
2.41809 -0.92388 1.0016
1.85072 -0.92388 1.85072
2.61732 -0.92388 0
2.41809 -0.92388 1.0016
2.29289 -0.707107 0
2.11836 -0.707107 0.877452
2.41809 -0.92388 1.0016
1.85072 -0.92388 1.85072
2.11836 -0.707107 0.877452
1.62132 -0.707107 1.62132
2.12132 -1 2.12132
1.14805 -1 2.77164
1.85072 -0.92388 1.85072
1.0016 -0.92388 2.41809
1.14805 -1 2.77164
0 -1 3
1.0016 -0.92388 2.41809
1.60264e-16 -0.92388 2.61732
1.85072 -0.92388 1.85072
1.0016 -0.92388 2.41809
1.62132 -0.707107 1.62132
0.877452 -0.707107 2.11836
1.0016 -0.92388 2.41809
1.60264e-16 -0.92388 2.61732
0.877452 -0.707107 2.11836
1.40399e-16 -0.707107 2.29289
2.29289 -0.707107 0
2.11836 -0.707107 0.877452
2.07612 -0.382683 0
1.91809 -0.382683 0.794497
2.11836 -0.707107 0.877452
1.62132 -0.707107 1.62132
1.91809 -0.382683 0.794497
1.46804 -0.382683 1.46804
2.07612 -0.382683 0
1.91809 -0.382683 0.794497
2 0 0
1.84776 1.22465e-16 0.765367
1.91809 -0.382683 0.794497
1.46804 -0.382683 1.46804
1.84776 1.22465e-16 0.765367
1.41421 1.22465e-16 1.41421
1.62132 -0.707107 1.62132
0.877452 -0.707107 2.11836
1.46804 -0.382683 1.46804
0.794497 -0.382683 1.91809
0.877452 -0.707107 2.11836
1.40399e-16 -0.707107 2.29289
0.794497 -0.382683 1.91809
1.27126e-16 -0.382683 2.07612
1.46804 -0.382683 1.46804
0.794497 -0.382683 1.91809
1.41421 1.22465e-16 1.41421
0.765367 1.22465e-16 1.84776
0.794497 -0.382683 1.91809
1.27126e-16 -0.382683 2.07612
0.765367 1.22465e-16 1.84776
0 0 2
4 0 0
3.69552 0 1.53073
3.92388 -0.382683 0
3.62519 -0.382683 1.5016
3.69552 0 1.53073
2.82843 0 2.82843
3.62519 -0.382683 1.5016
2.7746 -0.382683 2.7746
3.92388 -0.382683 0
3.62519 -0.382683 1.5016
3.70711 -0.707107 0
3.42492 -0.707107 1.41865
3.62519 -0.382683 1.5016
2.7746 -0.382683 2.7746
3.42492 -0.707107 1.41865
2.62132 -0.707107 2.62132
2.82843 0 2.82843
1.53073 0 3.69552
2.7746 -0.382683 2.7746
1.5016 -0.382683 3.62519
1.53073 0 3.69552
0 0 4
1.5016 -0.382683 3.62519
2.40268e-16 -0.382683 3.92388
2.7746 -0.382683 2.7746
1.5016 -0.382683 3.62519
2.62132 -0.707107 2.62132
1.41865 -0.707107 3.42492
1.5016 -0.382683 3.62519
2.40268e-16 -0.382683 3.92388
1.41865 -0.707107 3.42492
2.26995e-16 -0.707107 3.70711
3.70711 -0.707107 0
3.42492 -0.707107 1.41865
3.38268 -0.92388 0
3.12519 -0.92388 1.2945
3.42492 -0.707107 1.41865
2.62132 -0.707107 2.62132
3.12519 -0.92388 1.2945
2.39192 -0.92388 2.39192
3.38268 -0.92388 0
3.12519 -0.92388 1.2945
3 -1 0
2.77164 -1 1.14805
3.12519 -0.92388 1.2945
2.39192 -0.92388 2.39192
2.77164 -1 1.14805
2.12132 -1 2.12132
2.62132 -0.707107 2.62132
1.41865 -0.707107 3.42492
2.39192 -0.92388 2.39192
1.2945 -0.92388 3.12519
1.41865 -0.707107 3.42492
2.26995e-16 -0.707107 3.70711
1.2945 -0.92388 3.12519
2.0713e-16 -0.92388 3.38268
2.39192 -0.92388 2.39192
1.2945 -0.92388 3.12519
2.12132 -1 2.12132
1.14805 -1 2.77164
1.2945 -0.92388 3.12519
2.0713e-16 -0.92388 3.38268
1.14805 -1 2.77164
0 -1 3
3 1 0
2.77164 1 1.14805
3.38268 0.92388 0
3.12519 0.92388 1.2945
2.77164 1 1.14805
2.12132 1 2.12132
3.12519 0.92388 1.2945
2.39192 0.92388 2.39192
3.38268 0.92388 0
3.12519 0.92388 1.2945
3.70711 0.707107 0
3.42492 0.707107 1.41865
3.12519 0.92388 1.2945
2.39192 0.92388 2.39192
3.42492 0.707107 1.41865
2.62132 0.707107 2.62132
2.12132 1 2.12132
1.14805 1 2.77164
2.39192 0.92388 2.39192
1.2945 0.92388 3.12519
1.14805 1 2.77164
0 1 3
1.2945 0.92388 3.12519
2.0713e-16 0.92388 3.38268
2.39192 0.92388 2.39192
1.2945 0.92388 3.12519
2.62132 0.707107 2.62132
1.41865 0.707107 3.42492
1.2945 0.92388 3.12519
2.0713e-16 0.92388 3.38268
1.41865 0.707107 3.42492
2.26995e-16 0.707107 3.70711
3.70711 0.707107 0
3.42492 0.707107 1.41865
3.92388 0.382683 0
3.62519 0.382683 1.5016
3.42492 0.707107 1.41865
2.62132 0.707107 2.62132
3.62519 0.382683 1.5016
2.7746 0.382683 2.7746
3.92388 0.382683 0
3.62519 0.382683 1.5016
4 0 0
3.69552 0 1.53073
3.62519 0.382683 1.5016
2.7746 0.382683 2.7746
3.69552 0 1.53073
2.82843 0 2.82843
2.62132 0.707107 2.62132
1.41865 0.707107 3.42492
2.7746 0.382683 2.7746
1.5016 0.382683 3.62519
1.41865 0.707107 3.42492
2.26995e-16 0.707107 3.70711
1.5016 0.382683 3.62519
2.40268e-16 0.382683 3.92388
2.7746 0.382683 2.7746
1.5016 0.382683 3.62519
2.82843 0 2.82843
1.53073 0 3.69552
1.5016 0.382683 3.62519
2.40268e-16 0.382683 3.92388
1.53073 0 3.69552
0 0 4
0 0 2
-0.765367 1.22465e-16 1.84776
1.27126e-16 0.382683 2.07612
-0.794497 0.382683 1.91809
-0.765367 1.22465e-16 1.84776
-1.41421 1.22465e-16 1.41421
-0.794497 0.382683 1.91809
-1.46804 0.382683 1.46804
1.27126e-16 0.382683 2.07612
-0.794497 0.382683 1.91809
1.40399e-16 0.707107 2.29289
-0.877452 0.707107 2.11836
-0.794497 0.382683 1.91809
-1.46804 0.382683 1.46804
-0.877452 0.707107 2.11836
-1.62132 0.707107 1.62132
-1.41421 1.22465e-16 1.41421
-1.84776 1.22465e-16 0.765367
-1.46804 0.382683 1.46804
-1.91809 0.382683 0.794497
-1.84776 1.22465e-16 0.765367
-2 0 0
-1.91809 0.382683 0.794497
-2.07612 0.382683 2.54251e-16
-1.46804 0.382683 1.46804
-1.91809 0.382683 0.794497
-1.62132 0.707107 1.62132
-2.11836 0.707107 0.877452
-1.91809 0.382683 0.794497
-2.07612 0.382683 2.54251e-16
-2.11836 0.707107 0.877452
-2.29289 0.707107 2.80798e-16
1.40399e-16 0.707107 2.29289
-0.877452 0.707107 2.11836
1.60264e-16 0.92388 2.61732
-1.0016 0.92388 2.41809
-0.877452 0.707107 2.11836
-1.62132 0.707107 1.62132
-1.0016 0.92388 2.41809
-1.85072 0.92388 1.85072
1.60264e-16 0.92388 2.61732
-1.0016 0.92388 2.41809
0 1 3
-1.14805 1 2.77164
-1.0016 0.92388 2.41809
-1.85072 0.92388 1.85072
-1.14805 1 2.77164
-2.12132 1 2.12132
-1.62132 0.707107 1.62132
-2.11836 0.707107 0.877452
-1.85072 0.92388 1.85072
-2.41809 0.92388 1.0016
-2.11836 0.707107 0.877452
-2.29289 0.707107 2.80798e-16
-2.41809 0.92388 1.0016
-2.61732 0.92388 3.20529e-16
-1.85072 0.92388 1.85072
-2.41809 0.92388 1.0016
-2.12132 1 2.12132
-2.77164 1 1.14805
-2.41809 0.92388 1.0016
-2.61732 0.92388 3.20529e-16
-2.77164 1 1.14805
-3 1 0
0 -1 3
-1.14805 -1 2.77164
1.60264e-16 -0.92388 2.61732
-1.0016 -0.92388 2.41809
-1.14805 -1 2.77164
-2.12132 -1 2.12132
-1.0016 -0.92388 2.41809
-1.85072 -0.92388 1.85072
1.60264e-16 -0.92388 2.61732
-1.0016 -0.92388 2.41809
1.40399e-16 -0.707107 2.29289
-0.877452 -0.707107 2.11836
-1.0016 -0.92388 2.41809
-1.85072 -0.92388 1.85072
-0.877452 -0.707107 2.11836
-1.62132 -0.707107 1.62132
-2.12132 -1 2.12132
-2.77164 -1 1.14805
-1.85072 -0.92388 1.85072
-2.41809 -0.92388 1.0016
-2.77164 -1 1.14805
-3 -1 0
-2.41809 -0.92388 1.0016
-2.61732 -0.92388 3.20529e-16
-1.85072 -0.92388 1.85072
-2.41809 -0.92388 1.0016
-1.62132 -0.707107 1.62132
-2.11836 -0.707107 0.877452
-2.41809 -0.92388 1.0016
-2.61732 -0.92388 3.20529e-16
-2.11836 -0.707107 0.877452
-2.29289 -0.707107 2.80798e-16
1.40399e-16 -0.707107 2.29289
-0.877452 -0.707107 2.11836
1.27126e-16 -0.382683 2.07612
-0.794497 -0.382683 1.91809
-0.877452 -0.707107 2.11836
-1.62132 -0.707107 1.62132
-0.794497 -0.382683 1.91809
-1.46804 -0.382683 1.46804
1.27126e-16 -0.382683 2.07612
-0.794497 -0.382683 1.91809
0 0 2
-0.765367 1.22465e-16 1.84776
-0.794497 -0.382683 1.91809
-1.46804 -0.382683 1.46804
-0.765367 1.22465e-16 1.84776
-1.41421 1.22465e-16 1.41421
-1.62132 -0.707107 1.62132
-2.11836 -0.707107 0.877452
-1.46804 -0.382683 1.46804
-1.91809 -0.382683 0.794497
-2.11836 -0.707107 0.877452
-2.29289 -0.707107 2.80798e-16
-1.91809 -0.382683 0.794497
-2.07612 -0.382683 2.54251e-16
-1.46804 -0.382683 1.46804
-1.91809 -0.382683 0.794497
-1.41421 1.22465e-16 1.41421
-1.84776 1.22465e-16 0.765367
-1.91809 -0.382683 0.794497
-2.07612 -0.382683 2.54251e-16
-1.84776 1.22465e-16 0.765367
-2 0 0
0 0 4
-1.53073 0 3.69552
2.40268e-16 -0.382683 3.92388
-1.5016 -0.382683 3.62519
-1.53073 0 3.69552
-2.82843 0 2.82843
-1.5016 -0.382683 3.62519
-2.7746 -0.382683 2.7746
2.40268e-16 -0.382683 3.92388
-1.5016 -0.382683 3.62519
2.26995e-16 -0.707107 3.70711
-1.41865 -0.707107 3.42492
-1.5016 -0.382683 3.62519
-2.7746 -0.382683 2.7746
-1.41865 -0.707107 3.42492
-2.62132 -0.707107 2.62132
-2.82843 0 2.82843
-3.69552 0 1.53073
-2.7746 -0.382683 2.7746
-3.62519 -0.382683 1.5016
-3.69552 0 1.53073
-4 0 0
-3.62519 -0.382683 1.5016
-3.92388 -0.382683 4.80537e-16
-2.7746 -0.382683 2.7746
-3.62519 -0.382683 1.5016
-2.62132 -0.707107 2.62132
-3.42492 -0.707107 1.41865
[...]
POINT_DATA 1024
SCALARS U double 1
LOOKUP_TABLE default
0.0725908 0.0728182 0.101248 0.101542 0.0728182 0.0711207 0.101542 0.0999825 0.101248 0.101542 0.13199 0.132299 0.101542 0.0999825 0.132299 0.131436 0.0711207 0.0557839 0.0999825 0.0826377 0.0557839 0.0241119 0.0826377 0.0421027 0.0999825 0.0826377 0.131436 0.114279 0.0826377 0.0421027 0.114279 0.0658689 0.13199 0.132299 0.148872 0.149088 0.132299 0.131436 0.149088 0.149173 0.148872 0.149088 0.152263 0.152307 0.149088 0.149173 0.152307 0.153205 0.131436 0.114279 0.149173 0.133429 0.114279 0.0658689 0.133429 0.0793431 0.149173 0.133429 0.153205 0.139427 0.133429 0.0793431 0.139427 0.0815204 0.0126936 0.0127204 0.0162079 0.016269 0.0127204 0.0127419 0.016269 0.0159677 0.0162079 0.016269 0.0295551 0.0296534 0.016269 0.0159677 0.0296534 0.0289239 0.0127419 0.0101324 0.0159677 0.0122071 0.0101324 0.00256549 0.0122071 0.00411322 0.0159677 0.0122071 0.0289239 0.0220673 0.0122071 0.00411322 0.0220673 0.00815725 0.0295551 0.0296534 0.0495619 0.0497186 0.0296534 0.0289239 0.0497186 0.0484249 0.0495619 0.0497186 0.0725908 0.0728182 0.0497186 0.0484249 0.0728182 0.0711207 0.0289239 0.0220673 0.0484249 0.0371339 0.0220673 0.00815725 0.0371339 0.0145809 0.0484249 0.0371339 0.0711207 0.0557839 0.0371339 0.0145809 0.0557839 0.0241119 0.0732821 0.0729755 0.052965 0.0527255 0.0729755 0.0743865 0.0527255 0.0538549 0.052965 0.0527255 0.0339709 0.0338348 0.0527255 0.0538549 0.0338348 0.034591 0.0743865 0.067836 0.0538549 0.0485501 0.067836 0.0137929 0.0485501 0.00714482 0.0538549 0.0485501 0.034591 0.0305387 0.0485501 0.00714482 0.0305387 0.00433671 0.0339709 0.0338348 0.0191968 0.0191597 0.0338348 0.034591 0.0191597 0.0195243 0.0191968 0.0191597 0.0126936 0.0127204 0.0191597 0.0195243 0.0127204 0.0127419 0.034591 0.0305387 0.0195243 0.0165621 0.0305387 0.00433671 0.0165621 0.00280185 0.0195243 0.0165621 0.0127419 0.0101324 0.0165621 0.00280185 0.0101324 0.00256549 0.152263 0.152307 0.146955 0.146827 0.152307 0.153205 0.146827 0.148224 0.146955 0.146827 0.128467 0.128213 0.146827 0.148224 0.128213 0.129814 0.153205 0.139427 0.148224 0.136528 0.139427 0.0815204 0.136528 0.0761975 0.148224 0.136528 0.129814 0.12007 0.136528 0.0761975 0.12007 0.0584961 0.128467 0.128213 0.0988571 0.0985429 0.128213 0.129814 0.0985429 0.100121 0.0988571 0.0985429 0.0732821 0.0729755 0.0985429 0.100121 0.0729755 0.0743865 0.129814 0.12007 0.100121 0.0921369 0.12007 0.0584961 0.0921369 0.0316076 0.100121 0.0921369 0.0743865 0.067836 0.0921369 0.0316076 0.067836 0.0137929 0.0241119 0.00408243 0.0421027 0.00655662 0.00408243 -6.37267e-05 0.00655662 -0.000285569 0.0421027 0.00655662 0.0658689 0.00800792 0.00655662 -0.000285569 0.00800792 -0.000682531 -6.37267e-05 -5.95846e-05 -0.000285569 -4.37674e-05 -5.95846e-05 1.27176e-05 -4.37674e-05 7.99378e-06 -0.000285569 -4.37674e-05 -0.000682531 3.11594e-05 -4.37674e-05 7.99378e-06 3.11594e-05 -1.3062e-05 0.0658689 0.00800792 0.0793431 0.00709072 0.00800792 -0.000682531 0.00709072 -0.000843584 0.0793431 0.00709072 0.0815204 0.00467441 0.00709072 -0.000843584 0.00467441 -0.000715652 -0.000682531 3.11594e-05 -0.000843584 8.22042e-05 3.11594e-05 -1.3062e-05 8.22042e-05 -2.32758e-05 -0.000843584 8.22042e-05 -0.000715652 9.17663e-05 8.22042e-05 -2.32758e-05 9.17663e-05 -2.35787e-05 0.00256549 -4.07051e-05 0.00411322 0.000287245 -4.07051e-05 -1.93381e-05 0.000287245 -5.48627e-05 0.00411322 0.000287245 0.00815725 0.000903017 0.000287245 -5.48627e-05 0.000903017 -7.79188e-05 -1.93381e-05 3.58641e-06 -5.48627e-05 6.05983e-07 3.58641e-06 -9.95048e-07 6.05983e-07 1.66093e-06 -5.48627e-05 6.05983e-07 -7.79188e-05 -8.58895e-06 6.05983e-07 1.66093e-06 -8.58895e-06 3.86575e-06 0.00815725 0.000903017 0.0145809 0.00211462 0.000903017 -7.79188e-05 0.00211462 -6.72078e-05 0.0145809 0.00211462 0.0241119 0.00408243 0.00211462 -6.72078e-05 0.00408243 -6.37267e-05 -7.79188e-05 -8.58895e-06 -6.72078e-05 -3.03564e-05 -8.58895e-06 3.86575e-06 -3.03564e-05 7.04063e-06 -6.72078e-05 -3.03564e-05 -6.37267e-05 -5.95846e-05 -3.03564e-05 7.04063e-06 -5.95846e-05 1.27176e-05 0.0137929 -0.000392858 0.00714482 -0.000599598 -0.000392858 3.88168e-05 -0.000599598 9.52295e-05 0.00714482 -0.000599598 0.00433671 -0.000548671 -0.000599598 9.52295e-05 -0.000548671 8.26959e-05 3.88168e-05 -1.24124e-06 9.52295e-05 -1.234e-05 -1.24124e-06 -6.69922e-07 -1.234e-05 2.17745e-06 9.52295e-05 -1.234e-05 8.26959e-05 -9.08511e-06 -1.234e-05 2.17745e-06 -9.08511e-06 5.1483e-07 0.00433671 -0.000548671 0.00280185 -0.00031294 -0.000548671 8.26959e-05 -0.00031294 3.0223e-05 0.00280185 -0.00031294 0.00256549 -4.07051e-05 -0.00031294 3.0223e-05 -4.07051e-05 -1.93381e-05 8.26959e-05 -9.08511e-06 3.0223e-05 -2.93181e-07 -9.08511e-06 5.1483e-07 -2.93181e-07 -1.70525e-06 3.0223e-05 -2.93181e-07 -1.93381e-05 3.58641e-06 -2.93181e-07 -1.70525e-06 3.58641e-06 -9.95048e-07 0.0815204 0.00467441 0.0761975 0.00202991 0.00467441 -0.000715652 0.00202991 -0.000421979 0.0761975 0.00202991 0.0584961 0.000284472 0.00202991 -0.000421979 0.000284472 -0.000148471 -0.000715652 9.17663e-05 -0.000421979 7.07113e-05 9.17663e-05 -2.35787e-05 7.07113e-05 -2.04699e-05 -0.000421979 7.07113e-05 -0.000148471 3.53921e-05 7.07113e-05 -2.04699e-05 3.53921e-05 -1.19766e-05 0.0584961 0.000284472 0.0316076 -0.000186971 0.000284472 -0.000148471 -0.000186971 -3.54305e-05 0.0316076 -0.000186971 0.0137929 -0.000392858 -0.000186971 -3.54305e-05 -0.000392858 3.88168e-05 -0.000148471 3.53921e-05 -3.54305e-05 1.50261e-05 3.53921e-05 -1.19766e-05 1.50261e-05 -5.70909e-06 -3.54305e-05 1.50261e-05 3.88168e-05 -1.24124e-06 1.50261e-05 -5.70909e-06 -1.24124e-06 -6.69922e-07 1.27176e-05 -5.95854e-05 7.99378e-06 -4.37659e-05 -5.95854e-05 -6.37329e-05 -4.37659e-05 -0.000285589 7.99378e-06 -4.37659e-05 -1.3062e-05 3.1157e-05 -4.37659e-05 -0.000285589 3.1157e-05 -0.000682548 -6.37329e-05 0.00408243 -0.000285589 0.00655662 0.00408243 0.0241119 0.00655662 0.0421027 -0.000285589 0.00655662 -0.000682548 0.00800791 0.00655662 0.0421027 0.00800791 0.0658689 -1.3062e-05 3.1157e-05 -2.32758e-05 8.22069e-05 3.1157e-05 -0.000682548 8.22069e-05 -0.000843592 -2.32758e-05 8.22069e-05 -2.35787e-05 9.17701e-05 8.22069e-05 -0.000843592 9.17701e-05 -0.000715645 -0.000682548 0.00800791 -0.000843592 0.00709071 0.00800791 0.0658689 0.00709071 0.0793431 -0.000843592 0.00709071 -0.000715645 0.0046744 0.00709071 0.0793431 0.0046744 0.0815203 -9.95048e-07 3.58737e-06 1.66093e-06 6.0823e-07 3.58737e-06 -1.93354e-05 6.0823e-07 -5.48638e-05 1.66093e-06 6.0823e-07 3.86575e-06 -8.59221e-06 6.0823e-07 -5.48638e-05 -8.59221e-06 -7.79117e-05 -1.93354e-05 -4.07004e-05 -5.48638e-05 0.000287258 -4.07004e-05 0.00256549 0.000287258 0.00411322 -5.48638e-05 0.000287258 -7.79117e-05 0.000903021 0.000287258 0.00411322 0.000903021 0.00815725 3.86575e-06 -8.59221e-06 7.04063e-06 -3.0351e-05 -8.59221e-06 -7.79117e-05 -3.0351e-05 -6.72109e-05 7.04063e-06 -3.0351e-05 1.27176e-05 -5.95854e-05 -3.0351e-05 -6.72109e-05 -5.95854e-05 -6.37329e-05 -7.79117e-05 0.000903021 -6.72109e-05 0.00211462 0.000903021 0.00815725 0.00211462 0.0145809 -6.72109e-05 0.00211462 -6.37329e-05 0.00408243 0.00211462 0.0145809 0.00408243 0.0241119 -6.69922e-07 -1.244e-06 2.17745e-06 -1.23352e-05 -1.244e-06 3.88205e-05 -1.23352e-05 9.52257e-05 2.17745e-06 -1.23352e-05 5.1483e-07 -9.08531e-06 -1.23352e-05 9.52257e-05 -9.08531e-06 8.26999e-05 3.88205e-05 -0.000392865 9.52257e-05 -0.000599602 -0.000392865 0.0137929 -0.000599602 0.00714482 9.52257e-05 -0.000599602 8.26999e-05 -0.000548678 -0.000599602 0.00714482 -0.000548678 0.00433671 5.1483e-07 -9.08531e-06 -1.70525e-06 -2.92969e-07 -9.08531e-06 8.26999e-05 -2.92969e-07 3.02246e-05 -1.70525e-06 -2.92969e-07 -9.95048e-07 3.58737e-06 -2.92969e-07 3.02246e-05 3.58737e-06 -1.93354e-05 8.26999e-05 -0.000548678 3.02246e-05 -0.000312942 -0.000548678 0.00433671 -0.000312942 0.00280185 3.02246e-05 -0.000312942 -1.93354e-05 -4.07004e-05 -0.000312942 0.00280185 -4.07004e-05 0.00256549 -2.35787e-05 9.17701e-05 -2.04699e-05 7.07157e-05 9.17701e-05 -0.000715645 7.07157e-05 -0.000421968 -2.04699e-05 7.07157e-05 -1.19766e-05 3.53897e-05 7.07157e-05 -0.000421968 3.53897e-05 -0.00014845 -0.000715645 0.0046744 -0.000421968 0.00202991 0.0046744 0.0815203 0.00202991 0.0761975 -0.000421968 0.00202991 -0.00014845 0.000284469 0.00202991 0.0761975 0.000284469 0.0584961 -1.19766e-05 3.53897e-05 -5.70909e-06 1.50268e-05 3.53897e-05 -0.00014845 1.50268e-05 -3.54254e-05 -5.70909e-06 1.50268e-05 -6.69922e-07 -1.244e-06 1.50268e-05 -3.54254e-05 -1.244e-06 3.88205e-05 -0.00014845 0.000284469 -3.54254e-05 -0.000186975 0.000284469 0.0584961 -0.000186975 0.0316076 -3.54254e-05 -0.000186975 3.88205e-05 -0.000392865 -0.000186975 0.0316076 -0.000392865 0.0137929 0.0241119 0.0557839 0.0421027 0.0826377 0.0557839 0.0711207 0.0826377 0.0999825 0.0421027 0.0826377 0.0658689 0.114279 0.0826377 0.0999825 0.114279 0.131436 0.0711207 0.0728182 0.0999825 0.101542 0.0728182 0.0725908 0.101542 0.101248 0.0999825 0.101542 0.131436 0.132299 0.101542 0.101248 0.132299 0.13199 0.0658689 0.114279 0.0793431 0.133429 0.114279 0.131436 0.133429 0.149173 0.0793431 0.133429 0.0815203 0.139427 0.133429 0.149173 0.139427 0.153205 0.131436 0.132299 0.149173 0.149088 0.132299 0.13199 0.149088 0.148872 0.149173 0.149088 0.153205 0.152307 0.149088 0.148872 0.152307 0.152263 0.00256549 0.0101324 0.00411322 0.0122071 0.0101324 0.0127419 0.0122071 0.0159677 0.00411322 0.0122071 0.00815725 0.0220673 0.0122071 0.0159677 0.0220673 0.0289239 0.0127419 0.0127204 0.0159677 0.016269 0.0127204 0.0126936 0.016269 0.0162079 0.0159677 0.016269 0.0289239 0.0296534 0.016269 0.0162079 0.0296534 0.0295551 0.00815725 0.0220673 0.0145809 0.0371338 0.0220673 0.0289239 0.0371338 0.0484249 0.0145809 0.0371338 0.0241119 0.0557839 0.0371338 0.0484249 0.0557839 0.0711207 0.0289239 0.0296534 0.0484249 0.0497186 0.0296534 0.0295551 0.0497186 0.0495619 0.0484249 0.0497186 0.0711207 0.0728182 0.0497186 0.0495619 0.0728182 0.0725908 0.0137929 0.067836 0.00714482 0.0485501 0.067836 0.0743865 0.0485501 0.0538549 0.00714482 0.0485501 0.00433671 0.0305387 0.0485501 0.0538549 0.0305387 0.034591 0.0743865 0.0729755 0.0538549 0.0527255 0.0729755 0.0732821 0.0527255 0.052965 0.0538549 0.0527255 0.034591 0.0338348 0.0527255 0.052965 0.0338348 0.0339709 0.00433671 0.0305387 0.00280185 0.0165621 0.0305387 0.034591 0.0165621 0.0195243 0.00280185 0.0165621 0.00256549 0.0101324 0.0165621 0.0195243 0.0101324 0.0127419 0.034591 0.0338348 0.0195243 0.0191597 0.0338348 0.0339709 0.0191597 0.0191968 0.0195243 0.0191597 0.0127419 0.0127204 0.0191597 0.0191968 0.0127204 0.0126936 0.0815203 0.139427 0.0761975 0.136528 0.139427 0.153205 0.136528 0.148224 0.0761975 0.136528 0.0584961 0.12007 0.136528 0.148224 0.12007 0.129814 0.153205 0.152307 0.148224 0.146827 0.152307 0.152263 0.146827 0.146955 0.148224 0.146827 0.129814 0.128213 0.146827 0.146955 0.128213 0.128467 0.0584961 0.12007 0.0316076 0.0921369 0.12007 0.129814 0.0921369 0.100121 0.0316076 0.0921369 0.0137929 0.067836 0.0921369 0.100121 0.067836 0.0743865 0.129814 0.128213 0.100121 0.0985429 0.128213 0.128467 0.0985429 0.0988571 0.100121 0.0985429 0.0743865 0.0729755 0.0985429 0.0988571 0.0729755 0.0732821 
