# vtk DataFile Version 3.0
#This file was generated by the deal.II library on 2023/3/9 at 14:21:08
ASCII
DATASET UNSTRUCTURED_GRID

FIELD FieldData 2
CYCLE 1 1 int
137
TIME 1 1 double
0.274
POINTS 64 double
2 0 0
0 0 2
3 1 0
0 1 3
3 -1 0
0 -1 3
2 0 0
0 0 2
4 0 0
0 0 4
3 -1 0
0 -1 3
3 1 0
0 1 3
4 0 0
0 0 4
0 0 2
-2 0 0
0 1 3
-3 1 0
0 -1 3
-3 -1 0
0 0 2
-2 0 0
0 0 4
-4 0 0
0 -1 3
-3 -1 0
0 1 3
-3 1 0
0 0 4
-4 0 0
-2 0 0
0 0 -2
-3 1 0
0 1 -3
-3 -1 0
0 -1 -3
-2 0 0
0 0 -2
-4 0 0
0 0 -4
-3 -1 0
0 -1 -3
-3 1 0
0 1 -3
-4 0 0
0 0 -4
0 0 -2
2 0 0
0 1 -3
3 1 0
0 -1 -3
3 -1 0
0 0 -2
2 0 0
0 0 -4
4 0 0
0 -1 -3
3 -1 0
0 1 -3
3 1 0
0 0 -4
4 0 0

CELLS 16 80
4	0	1	3	2
4	4	5	7	6
4	8	9	11	10
4	12	13	15	14
4	16	17	19	18
4	20	21	23	22
4	24	25	27	26
4	28	29	31	30
4	32	33	35	34
4	36	37	39	38
4	40	41	43	42
4	44	45	47	46
4	48	49	51	50
4	52	53	55	54
4	56	57	59	58
4	60	61	63	62

CELL_TYPES 16
 9 9 9 9 9 9 9 9 9 9 9 9 9 9 9 9
POINT_DATA 64
SCALARS U double 1
LOOKUP_TABLE default
-46.5006 28.3999 24.5102 27.7422 24.5102 27.7422 -46.5006 28.3999 16.6901 27.1763 24.5102 27.7422 24.5102 27.7422 16.6901 27.1763 28.3999 32.1634 27.7422 -38.6511 27.7422 -38.6511 28.3999 32.1634 27.1763 -30.6829 27.7422 -38.6511 27.7422 -38.6511 27.1763 -30.6829 32.1634 28.3999 -38.6511 27.7422 -38.6511 27.7422 32.1634 28.3999 -30.6829 27.1763 -38.6511 27.7422 -38.6511 27.7422 -30.6829 27.1763 28.3999 -46.5006 27.7422 24.5102 27.7422 24.5102 28.3999 -46.5006 27.1763 16.6901 27.7422 24.5102 27.7422 24.5102 27.1763 16.6901 
