# vtk DataFile Version 3.0
#This file was generated by the deal.II library on 2023/3/9 at 14:21:08
ASCII
DATASET UNSTRUCTURED_GRID

FIELD FieldData 2
CYCLE 1 1 int
130
TIME 1 1 double
0.26
POINTS 64 double
2 0 0
0 0 2
3 1 0
0 1 3
3 -1 0
0 -1 3
2 0 0
0 0 2
4 0 0
0 0 4
3 -1 0
0 -1 3
3 1 0
0 1 3
4 0 0
0 0 4
0 0 2
-2 0 0
0 1 3
-3 1 0
0 -1 3
-3 -1 0
0 0 2
-2 0 0
0 0 4
-4 0 0
0 -1 3
-3 -1 0
0 1 3
-3 1 0
0 0 4
-4 0 0
-2 0 0
0 0 -2
-3 1 0
0 1 -3
-3 -1 0
0 -1 -3
-2 0 0
0 0 -2
-4 0 0
0 0 -4
-3 -1 0
0 -1 -3
-3 1 0
0 1 -3
-4 0 0
0 0 -4
0 0 -2
2 0 0
0 1 -3
3 1 0
0 -1 -3
3 -1 0
0 0 -2
2 0 0
0 0 -4
4 0 0
0 -1 -3
3 -1 0
0 1 -3
3 1 0
0 0 -4
4 0 0

CELLS 16 80
4	0	1	3	2
4	4	5	7	6
4	8	9	11	10
4	12	13	15	14
4	16	17	19	18
4	20	21	23	22
4	24	25	27	26
4	28	29	31	30
4	32	33	35	34
4	36	37	39	38
4	40	41	43	42
4	44	45	47	46
4	48	49	51	50
4	52	53	55	54
4	56	57	59	58
4	60	61	63	62

CELL_TYPES 16
 9 9 9 9 9 9 9 9 9 9 9 9 9 9 9 9
POINT_DATA 64
SCALARS U double 1
LOOKUP_TABLE default
-47.6846 29.1196 25.1741 28.5064 25.1741 28.5064 -47.6846 29.1196 17.2169 27.9589 25.1741 28.5064 25.1741 28.5064 17.2169 27.9589 29.1196 32.9708 28.5064 -39.6403 28.5064 -39.6403 29.1196 32.9708 27.9589 -31.5254 28.5064 -39.6403 28.5064 -39.6403 27.9589 -31.5254 32.9708 29.1196 -39.6403 28.5064 -39.6403 28.5064 32.9708 29.1196 -31.5254 27.9589 -39.6403 28.5064 -39.6403 28.5064 -31.5254 27.9589 29.1196 -47.6846 28.5064 25.1741 28.5064 25.1741 29.1196 -47.6846 27.9589 17.2169 28.5064 25.1741 28.5064 25.1741 27.9589 17.2169 
