# vtk DataFile Version 3.0
#This file was generated by the deal.II library on 2023/3/8 at 18:39:23
ASCII
DATASET UNSTRUCTURED_GRID

FIELD FieldData 2
CYCLE 1 1 int
79
TIME 1 1 double
0.158
POINTS 1024 double
2 0 0
1.84776 1.22465e-16 0.765367
2.07612 0.382683 0
1.91809 0.382683 0.794497
1.84776 1.22465e-16 0.765367
1.41421 1.22465e-16 1.41421
1.91809 0.382683 0.794497
1.46804 0.382683 1.46804
2.07612 0.382683 0
1.91809 0.382683 0.794497
2.29289 0.707107 0
2.11836 0.707107 0.877452
1.91809 0.382683 0.794497
1.46804 0.382683 1.46804
2.11836 0.707107 0.877452
1.62132 0.707107 1.62132
1.41421 1.22465e-16 1.41421
0.765367 1.22465e-16 1.84776
1.46804 0.382683 1.46804
0.794497 0.382683 1.91809
0.765367 1.22465e-16 1.84776
0 0 2
0.794497 0.382683 1.91809
1.27126e-16 0.382683 2.07612
1.46804 0.382683 1.46804
0.794497 0.382683 1.91809
1.62132 0.707107 1.62132
0.877452 0.707107 2.11836
0.794497 0.382683 1.91809
1.27126e-16 0.382683 2.07612
0.877452 0.707107 2.11836
1.40399e-16 0.707107 2.29289
2.29289 0.707107 0
2.11836 0.707107 0.877452
2.61732 0.92388 0
2.41809 0.92388 1.0016
2.11836 0.707107 0.877452
1.62132 0.707107 1.62132
2.41809 0.92388 1.0016
1.85072 0.92388 1.85072
2.61732 0.92388 0
2.41809 0.92388 1.0016
3 1 0
2.77164 1 1.14805
2.41809 0.92388 1.0016
1.85072 0.92388 1.85072
2.77164 1 1.14805
2.12132 1 2.12132
1.62132 0.707107 1.62132
0.877452 0.707107 2.11836
1.85072 0.92388 1.85072
1.0016 0.92388 2.41809
0.877452 0.707107 2.11836
1.40399e-16 0.707107 2.29289
1.0016 0.92388 2.41809
1.60264e-16 0.92388 2.61732
1.85072 0.92388 1.85072
1.0016 0.92388 2.41809
2.12132 1 2.12132
1.14805 1 2.77164
1.0016 0.92388 2.41809
1.60264e-16 0.92388 2.61732
1.14805 1 2.77164
0 1 3
3 -1 0
2.77164 -1 1.14805
2.61732 -0.92388 0
2.41809 -0.92388 1.0016
2.77164 -1 1.14805
2.12132 -1 2.12132
2.41809 -0.92388 1.0016
1.85072 -0.92388 1.85072
2.61732 -0.92388 0
2.41809 -0.92388 1.0016
2.29289 -0.707107 0
2.11836 -0.707107 0.877452
2.41809 -0.92388 1.0016
1.85072 -0.92388 1.85072
2.11836 -0.707107 0.877452
1.62132 -0.707107 1.62132
2.12132 -1 2.12132
1.14805 -1 2.77164
1.85072 -0.92388 1.85072
1.0016 -0.92388 2.41809
1.14805 -1 2.77164
0 -1 3
1.0016 -0.92388 2.41809
1.60264e-16 -0.92388 2.61732
1.85072 -0.92388 1.85072
1.0016 -0.92388 2.41809
1.62132 -0.707107 1.62132
0.877452 -0.707107 2.11836
1.0016 -0.92388 2.41809
1.60264e-16 -0.92388 2.61732
0.877452 -0.707107 2.11836
1.40399e-16 -0.707107 2.29289
2.29289 -0.707107 0
2.11836 -0.707107 0.877452
2.07612 -0.382683 0
1.91809 -0.382683 0.794497
2.11836 -0.707107 0.877452
1.62132 -0.707107 1.62132
1.91809 -0.382683 0.794497
1.46804 -0.382683 1.46804
2.07612 -0.382683 0
1.91809 -0.382683 0.794497
2 0 0
1.84776 1.22465e-16 0.765367
1.91809 -0.382683 0.794497
1.46804 -0.382683 1.46804
1.84776 1.22465e-16 0.765367
1.41421 1.22465e-16 1.41421
1.62132 -0.707107 1.62132
0.877452 -0.707107 2.11836
1.46804 -0.382683 1.46804
0.794497 -0.382683 1.91809
0.877452 -0.707107 2.11836
1.40399e-16 -0.707107 2.29289
0.794497 -0.382683 1.91809
1.27126e-16 -0.382683 2.07612
1.46804 -0.382683 1.46804
0.794497 -0.382683 1.91809
1.41421 1.22465e-16 1.41421
0.765367 1.22465e-16 1.84776
0.794497 -0.382683 1.91809
1.27126e-16 -0.382683 2.07612
0.765367 1.22465e-16 1.84776
0 0 2
4 0 0
3.69552 0 1.53073
3.92388 -0.382683 0
3.62519 -0.382683 1.5016
3.69552 0 1.53073
2.82843 0 2.82843
3.62519 -0.382683 1.5016
2.7746 -0.382683 2.7746
3.92388 -0.382683 0
3.62519 -0.382683 1.5016
3.70711 -0.707107 0
3.42492 -0.707107 1.41865
3.62519 -0.382683 1.5016
2.7746 -0.382683 2.7746
3.42492 -0.707107 1.41865
2.62132 -0.707107 2.62132
2.82843 0 2.82843
1.53073 0 3.69552
2.7746 -0.382683 2.7746
1.5016 -0.382683 3.62519
1.53073 0 3.69552
0 0 4
1.5016 -0.382683 3.62519
2.40268e-16 -0.382683 3.92388
2.7746 -0.382683 2.7746
1.5016 -0.382683 3.62519
2.62132 -0.707107 2.62132
1.41865 -0.707107 3.42492
1.5016 -0.382683 3.62519
2.40268e-16 -0.382683 3.92388
1.41865 -0.707107 3.42492
2.26995e-16 -0.707107 3.70711
3.70711 -0.707107 0
3.42492 -0.707107 1.41865
3.38268 -0.92388 0
3.12519 -0.92388 1.2945
3.42492 -0.707107 1.41865
2.62132 -0.707107 2.62132
3.12519 -0.92388 1.2945
2.39192 -0.92388 2.39192
3.38268 -0.92388 0
3.12519 -0.92388 1.2945
3 -1 0
2.77164 -1 1.14805
3.12519 -0.92388 1.2945
2.39192 -0.92388 2.39192
2.77164 -1 1.14805
2.12132 -1 2.12132
2.62132 -0.707107 2.62132
1.41865 -0.707107 3.42492
2.39192 -0.92388 2.39192
1.2945 -0.92388 3.12519
1.41865 -0.707107 3.42492
2.26995e-16 -0.707107 3.70711
1.2945 -0.92388 3.12519
2.0713e-16 -0.92388 3.38268
2.39192 -0.92388 2.39192
1.2945 -0.92388 3.12519
2.12132 -1 2.12132
1.14805 -1 2.77164
1.2945 -0.92388 3.12519
2.0713e-16 -0.92388 3.38268
1.14805 -1 2.77164
0 -1 3
3 1 0
2.77164 1 1.14805
3.38268 0.92388 0
3.12519 0.92388 1.2945
2.77164 1 1.14805
2.12132 1 2.12132
3.12519 0.92388 1.2945
2.39192 0.92388 2.39192
3.38268 0.92388 0
3.12519 0.92388 1.2945
3.70711 0.707107 0
3.42492 0.707107 1.41865
3.12519 0.92388 1.2945
2.39192 0.92388 2.39192
3.42492 0.707107 1.41865
2.62132 0.707107 2.62132
2.12132 1 2.12132
1.14805 1 2.77164
2.39192 0.92388 2.39192
1.2945 0.92388 3.12519
1.14805 1 2.77164
0 1 3
1.2945 0.92388 3.12519
2.0713e-16 0.92388 3.38268
2.39192 0.92388 2.39192
1.2945 0.92388 3.12519
2.62132 0.707107 2.62132
1.41865 0.707107 3.42492
1.2945 0.92388 3.12519
2.0713e-16 0.92388 3.38268
1.41865 0.707107 3.42492
2.26995e-16 0.707107 3.70711
3.70711 0.707107 0
3.42492 0.707107 1.41865
3.92388 0.382683 0
3.62519 0.382683 1.5016
3.42492 0.707107 1.41865
2.62132 0.707107 2.62132
3.62519 0.382683 1.5016
2.7746 0.382683 2.7746
3.92388 0.382683 0
3.62519 0.382683 1.5016
4 0 0
3.69552 0 1.53073
3.62519 0.382683 1.5016
2.7746 0.382683 2.7746
3.69552 0 1.53073
2.82843 0 2.82843
2.62132 0.707107 2.62132
1.41865 0.707107 3.42492
2.7746 0.382683 2.7746
1.5016 0.382683 3.62519
1.41865 0.707107 3.42492
2.26995e-16 0.707107 3.70711
1.5016 0.382683 3.62519
2.40268e-16 0.382683 3.92388
2.7746 0.382683 2.7746
1.5016 0.382683 3.62519
2.82843 0 2.82843
1.53073 0 3.69552
1.5016 0.382683 3.62519
2.40268e-16 0.382683 3.92388
1.53073 0 3.69552
0 0 4
0 0 2
-0.765367 1.22465e-16 1.84776
1.27126e-16 0.382683 2.07612
-0.794497 0.382683 1.91809
-0.765367 1.22465e-16 1.84776
-1.41421 1.22465e-16 1.41421
-0.794497 0.382683 1.91809
-1.46804 0.382683 1.46804
1.27126e-16 0.382683 2.07612
-0.794497 0.382683 1.91809
1.40399e-16 0.707107 2.29289
-0.877452 0.707107 2.11836
-0.794497 0.382683 1.91809
-1.46804 0.382683 1.46804
-0.877452 0.707107 2.11836
-1.62132 0.707107 1.62132
-1.41421 1.22465e-16 1.41421
-1.84776 1.22465e-16 0.765367
-1.46804 0.382683 1.46804
-1.91809 0.382683 0.794497
-1.84776 1.22465e-16 0.765367
-2 0 0
-1.91809 0.382683 0.794497
-2.07612 0.382683 2.54251e-16
-1.46804 0.382683 1.46804
-1.91809 0.382683 0.794497
-1.62132 0.707107 1.62132
-2.11836 0.707107 0.877452
-1.91809 0.382683 0.794497
-2.07612 0.382683 2.54251e-16
-2.11836 0.707107 0.877452
-2.29289 0.707107 2.80798e-16
1.40399e-16 0.707107 2.29289
-0.877452 0.707107 2.11836
1.60264e-16 0.92388 2.61732
-1.0016 0.92388 2.41809
-0.877452 0.707107 2.11836
-1.62132 0.707107 1.62132
-1.0016 0.92388 2.41809
-1.85072 0.92388 1.85072
1.60264e-16 0.92388 2.61732
-1.0016 0.92388 2.41809
0 1 3
-1.14805 1 2.77164
-1.0016 0.92388 2.41809
-1.85072 0.92388 1.85072
-1.14805 1 2.77164
-2.12132 1 2.12132
-1.62132 0.707107 1.62132
-2.11836 0.707107 0.877452
-1.85072 0.92388 1.85072
-2.41809 0.92388 1.0016
-2.11836 0.707107 0.877452
-2.29289 0.707107 2.80798e-16
-2.41809 0.92388 1.0016
-2.61732 0.92388 3.20529e-16
-1.85072 0.92388 1.85072
-2.41809 0.92388 1.0016
-2.12132 1 2.12132
-2.77164 1 1.14805
-2.41809 0.92388 1.0016
-2.61732 0.92388 3.20529e-16
-2.77164 1 1.14805
-3 1 0
0 -1 3
-1.14805 -1 2.77164
1.60264e-16 -0.92388 2.61732
-1.0016 -0.92388 2.41809
-1.14805 -1 2.77164
-2.12132 -1 2.12132
-1.0016 -0.92388 2.41809
-1.85072 -0.92388 1.85072
1.60264e-16 -0.92388 2.61732
-1.0016 -0.92388 2.41809
1.40399e-16 -0.707107 2.29289
-0.877452 -0.707107 2.11836
-1.0016 -0.92388 2.41809
-1.85072 -0.92388 1.85072
-0.877452 -0.707107 2.11836
-1.62132 -0.707107 1.62132
-2.12132 -1 2.12132
-2.77164 -1 1.14805
-1.85072 -0.92388 1.85072
-2.41809 -0.92388 1.0016
-2.77164 -1 1.14805
-3 -1 0
-2.41809 -0.92388 1.0016
-2.61732 -0.92388 3.20529e-16
-1.85072 -0.92388 1.85072
-2.41809 -0.92388 1.0016
-1.62132 -0.707107 1.62132
-2.11836 -0.707107 0.877452
-2.41809 -0.92388 1.0016
-2.61732 -0.92388 3.20529e-16
-2.11836 -0.707107 0.877452
-2.29289 -0.707107 2.80798e-16
1.40399e-16 -0.707107 2.29289
-0.877452 -0.707107 2.11836
1.27126e-16 -0.382683 2.07612
-0.794497 -0.382683 1.91809
-0.877452 -0.707107 2.11836
-1.62132 -0.707107 1.62132
-0.794497 -0.382683 1.91809
-1.46804 -0.382683 1.46804
1.27126e-16 -0.382683 2.07612
-0.794497 -0.382683 1.91809
0 0 2
-0.765367 1.22465e-16 1.84776
-0.794497 -0.382683 1.91809
-1.46804 -0.382683 1.46804
-0.765367 1.22465e-16 1.84776
-1.41421 1.22465e-16 1.41421
-1.62132 -0.707107 1.62132
-2.11836 -0.707107 0.877452
-1.46804 -0.382683 1.46804
-1.91809 -0.382683 0.794497
-2.11836 -0.707107 0.877452
-2.29289 -0.707107 2.80798e-16
-1.91809 -0.382683 0.794497
-2.07612 -0.382683 2.54251e-16
-1.46804 -0.382683 1.46804
-1.91809 -0.382683 0.794497
-1.41421 1.22465e-16 1.41421
-1.84776 1.22465e-16 0.765367
-1.91809 -0.382683 0.794497
-2.07612 -0.382683 2.54251e-16
-1.84776 1.22465e-16 0.765367
-2 0 0
0 0 4
-1.53073 0 3.69552
2.40268e-16 -0.382683 3.92388
-1.5016 -0.382683 3.62519
-1.53073 0 3.69552
-2.82843 0 2.82843
-1.5016 -0.382683 3.62519
-2.7746 -0.382683 2.7746
2.40268e-16 -0.382683 3.92388
-1.5016 -0.382683 3.62519
2.26995e-16 -0.707107 3.70711
-1.41865 -0.707107 3.42492
-1.5016 -0.382683 3.62519
-2.7746 -0.382683 2.7746
-1.41865 -0.707107 3.42492
-2.62132 -0.707107 2.62132
-2.82843 0 2.82843
-3.69552 0 1.53073
-2.7746 -0.382683 2.7746
-3.62519 -0.382683 1.5016
-3.69552 0 1.53073
-4 0 0
-3.62519 -0.382683 1.5016
-3.92388 -0.382683 4.80537e-16
-2.7746 -0.382683 2.7746
-3.62519 -0.382683 1.5016
-2.62132 -0.707107 2.62132
-3.42492 -0.707107 1.41865
[...]
POINT_DATA 1024
SCALARS U double 1
LOOKUP_TABLE default
0.0334122 0.0335785 0.0472957 0.0474451 0.0335785 0.0339781 0.0474451 0.0479975 0.0472957 0.0474451 0.0706434 0.0706966 0.0474451 0.0479975 0.0706966 0.0714706 0.0339781 0.0265075 0.0479975 0.0399995 0.0265075 0.00680313 0.0399995 0.0166391 0.0479975 0.0399995 0.0714706 0.0642183 0.0399995 0.0166391 0.0642183 0.0385255 0.0706434 0.0706966 0.0791096 0.0790049 0.0706966 0.0714706 0.0790049 0.0800148 0.0791096 0.0790049 0.079343 0.0791048 0.0790049 0.0800148 0.0791048 0.0802097 0.0714706 0.0642183 0.0800148 0.0738874 0.0642183 0.0385255 0.0738874 0.0464066 0.0800148 0.0738874 0.0802097 0.0753432 0.0738874 0.0464066 0.0753432 0.0459783 0.00198323 0.001972 0.0044385 0.00444033 0.001972 0.0020237 0.00444033 0.00454287 0.0044385 0.00444033 0.0127638 0.0128004 0.00444033 0.00454287 0.0128004 0.0130249 0.0020237 0.00179117 0.00454287 0.00367267 0.00179117 0.000189537 0.00367267 0.000766946 0.00454287 0.00367267 0.0130249 0.0103415 0.00367267 0.000766946 0.0103415 0.00248048 0.0127638 0.0128004 0.0240367 0.0241465 0.0128004 0.0130249 0.0241465 0.0244652 0.0240367 0.0241465 0.0334122 0.0335785 0.0241465 0.0244652 0.0335785 0.0339781 0.0130249 0.0103415 0.0244652 0.0191315 0.0103415 0.00248048 0.0191315 0.00482203 0.0244652 0.0191315 0.0339781 0.0265075 0.0191315 0.00482203 0.0265075 0.00680313 0.0340311 0.0338112 0.0255285 0.0253604 0.0338112 0.0343018 0.0253604 0.0257423 0.0255285 0.0253604 0.0146333 0.0145316 0.0253604 0.0257423 0.0145316 0.0147798 0.0343018 0.0335408 0.0257423 0.025112 0.0335408 0.000219598 0.025112 0.000211281 0.0257423 0.025112 0.0147798 0.014279 0.025112 0.000211281 0.014279 0.000358198 0.0146333 0.0145316 0.00563581 0.00559334 0.0145316 0.0147798 0.00559334 0.00570857 0.00563581 0.00559334 0.00198323 0.001972 0.00559334 0.00570857 0.001972 0.0020237 0.0147798 0.014279 0.00570857 0.00542084 0.014279 0.000358198 0.00542084 0.000195275 0.00570857 0.00542084 0.0020237 0.00179117 0.00542084 0.000195275 0.00179117 0.000189537 0.079343 0.0791048 0.0792221 0.0789177 0.0791048 0.0802097 0.0789177 0.0799645 0.0792221 0.0789177 0.0698734 0.0695648 0.0789177 0.0799645 0.0695648 0.0704475 0.0802097 0.0753432 0.0799645 0.0763125 0.0753432 0.0459783 0.0763125 0.0451386 0.0799645 0.0763125 0.0704475 0.067962 0.0763125 0.0451386 0.067962 0.0344908 0.0698734 0.0695648 0.0468134 0.0465491 0.0695648 0.0704475 0.0465491 0.0471919 0.0468134 0.0465491 0.0340311 0.0338112 0.0465491 0.0471919 0.0338112 0.0343018 0.0704475 0.067962 0.0471919 0.0458861 0.067962 0.0344908 0.0458861 0.0100146 0.0471919 0.0458861 0.0343018 0.0335408 0.0458861 0.0100146 0.0335408 0.000219598 0.00680313 -0.000459461 0.0166391 -0.000477755 -0.000459461 -8.05278e-05 -0.000477755 -0.000150242 0.0166391 -0.000477755 0.0385255 -0.00105644 -0.000477755 -0.000150242 -0.00105644 -0.000121739 -8.05278e-05 4.26711e-05 -0.000150242 7.9194e-05 4.26711e-05 -2.01792e-05 7.9194e-05 -4.27877e-05 -0.000150242 7.9194e-05 -0.000121739 0.000111625 7.9194e-05 -4.27877e-05 0.000111625 -7.36602e-05 0.0385255 -0.00105644 0.0464066 -0.00208255 -0.00105644 -0.000121739 -0.00208255 0.000158213 0.0464066 -0.00208255 0.0459783 -0.00293113 -0.00208255 0.000158213 -0.00293113 0.000472305 -0.000121739 0.000111625 0.000158213 4.93806e-05 0.000111625 -7.36602e-05 4.93806e-05 -5.30563e-05 0.000158213 4.93806e-05 0.000472305 -4.85094e-05 4.93806e-05 -5.30563e-05 -4.85094e-05 -5.36385e-06 0.000189537 -4.32704e-05 0.000766946 -9.93994e-05 -4.32704e-05 8.39709e-06 -9.93994e-05 4.39194e-06 0.000766946 -9.93994e-05 0.00248048 -0.000237266 -9.93994e-05 4.39194e-06 -0.000237266 -9.36939e-06 8.39709e-06 -1.36239e-06 4.39194e-06 2.88107e-06 -1.36239e-06 3.11677e-07 2.88107e-06 -2.30453e-06 4.39194e-06 2.88107e-06 -9.36939e-06 1.298e-05 2.88107e-06 -2.30453e-06 1.298e-05 -7.65795e-06 0.00248048 -0.000237266 0.00482203 -0.000382063 -0.000237266 -9.36939e-06 -0.000382063 -4.38042e-05 0.00482203 -0.000382063 0.00680313 -0.000459461 -0.000382063 -4.38042e-05 -0.000459461 -8.05278e-05 -9.36939e-06 1.298e-05 -4.38042e-05 2.84082e-05 1.298e-05 -7.65795e-06 2.84082e-05 -1.42585e-05 -4.38042e-05 2.84082e-05 -8.05278e-05 4.26711e-05 2.84082e-05 -1.42585e-05 4.26711e-05 -2.01792e-05 0.000219598 -0.000324536 0.000211281 -0.000262712 -0.000324536 0.000124901 -0.000262712 9.88457e-05 0.000211281 -0.000262712 0.000358198 -0.000183718 -0.000262712 9.88457e-05 -0.000183718 6.26427e-05 0.000124901 -4.04769e-05 9.88457e-05 -3.17124e-05 -4.04769e-05 2.0578e-05 -3.17124e-05 1.60382e-05 9.88457e-05 -3.17124e-05 6.26427e-05 -1.8891e-05 -3.17124e-05 1.60382e-05 -1.8891e-05 9.16468e-06 0.000358198 -0.000183718 0.000195275 -8.60119e-05 -0.000183718 6.26427e-05 -8.60119e-05 2.6607e-05 0.000195275 -8.60119e-05 0.000189537 -4.32704e-05 -8.60119e-05 2.6607e-05 -4.32704e-05 8.39709e-06 6.26427e-05 -1.8891e-05 2.6607e-05 -7.39658e-06 -1.8891e-05 9.16468e-06 -7.39658e-06 3.35722e-06 2.6607e-05 -7.39658e-06 8.39709e-06 -1.36239e-06 -7.39658e-06 3.35722e-06 -1.36239e-06 3.11677e-07 0.0459783 -0.00293113 0.0451386 -0.00347168 -0.00293113 0.000472305 -0.00347168 0.000701143 0.0451386 -0.00347168 0.0344908 -0.00300364 -0.00347168 0.000701143 -0.00300364 0.000678511 0.000472305 -4.85094e-05 0.000701143 -0.000130131 -4.85094e-05 -5.36385e-06 -0.000130131 3.91181e-05 0.000701143 -0.000130131 0.000678511 -0.000150503 -0.000130131 3.91181e-05 -0.000150503 5.81551e-05 0.0344908 -0.00300364 0.0100146 -0.0011305 -0.00300364 0.000678511 -0.0011305 0.000298696 0.0100146 -0.0011305 0.000219598 -0.000324536 -0.0011305 0.000298696 -0.000324536 0.000124901 0.000678511 -0.000150503 0.000298696 -7.71224e-05 -0.000150503 5.81551e-05 -7.71224e-05 3.40315e-05 0.000298696 -7.71224e-05 0.000124901 -4.04769e-05 -7.71224e-05 3.40315e-05 -4.04769e-05 2.0578e-05 -2.01792e-05 4.26653e-05 -4.27877e-05 7.91919e-05 4.26653e-05 -8.05259e-05 7.91919e-05 -0.000150246 -4.27877e-05 7.91919e-05 -7.36602e-05 0.000111621 7.91919e-05 -0.000150246 0.000111621 -0.00012174 -8.05259e-05 -0.000459463 -0.000150246 -0.000477753 -0.000459463 0.00680312 -0.000477753 0.0166391 -0.000150246 -0.000477753 -0.00012174 -0.00105644 -0.000477753 0.0166391 -0.00105644 0.0385255 -7.36602e-05 0.000111621 -5.30563e-05 4.93788e-05 0.000111621 -0.00012174 4.93788e-05 0.000158212 -5.30563e-05 4.93788e-05 -5.36385e-06 -4.85085e-05 4.93788e-05 0.000158212 -4.85085e-05 0.00047231 -0.00012174 -0.00105644 0.000158212 -0.00208256 -0.00105644 0.0385255 -0.00208256 0.0464066 0.000158212 -0.00208256 0.00047231 -0.00293113 -0.00208256 0.0464066 -0.00293113 0.0459783 3.11677e-07 -1.36065e-06 -2.30453e-06 2.8847e-06 -1.36065e-06 8.39889e-06 2.8847e-06 4.39029e-06 -2.30453e-06 2.8847e-06 -7.65795e-06 1.29776e-05 2.8847e-06 4.39029e-06 1.29776e-05 -9.36625e-06 8.39889e-06 -4.32688e-05 4.39029e-06 -9.93926e-05 -4.32688e-05 0.000189539 -9.93926e-05 0.000766949 4.39029e-06 -9.93926e-05 -9.36625e-06 -0.000237267 -9.93926e-05 0.000766949 -0.000237267 0.00248048 -7.65795e-06 1.29776e-05 -1.42585e-05 2.841e-05 1.29776e-05 -9.36625e-06 2.841e-05 -4.38057e-05 -1.42585e-05 2.841e-05 -2.01792e-05 4.26653e-05 2.841e-05 -4.38057e-05 4.26653e-05 -8.05259e-05 -9.36625e-06 -0.000237267 -4.38057e-05 -0.000382061 -0.000237267 0.00248048 -0.000382061 0.00482203 -4.38057e-05 -0.000382061 -8.05259e-05 -0.000459463 -0.000382061 0.00482203 -0.000459463 0.00680312 2.0578e-05 -4.04799e-05 1.60382e-05 -3.1711e-05 -4.04799e-05 0.000124906 -3.1711e-05 9.88457e-05 1.60382e-05 -3.1711e-05 9.16468e-06 -1.88927e-05 -3.1711e-05 9.88457e-05 -1.88927e-05 6.26478e-05 0.000124906 -0.000324539 9.88457e-05 -0.000262713 -0.000324539 0.000219599 -0.000262713 0.000211283 9.88457e-05 -0.000262713 6.26478e-05 -0.000183719 -0.000262713 0.000211283 -0.000183719 0.000358204 9.16468e-06 -1.88927e-05 3.35722e-06 -7.39799e-06 -1.88927e-05 6.26478e-05 -7.39799e-06 2.66074e-05 3.35722e-06 -7.39799e-06 3.11677e-07 -1.36065e-06 -7.39799e-06 2.66074e-05 -1.36065e-06 8.39889e-06 6.26478e-05 -0.000183719 2.66074e-05 -8.60144e-05 -0.000183719 0.000358204 -8.60144e-05 0.000195276 2.66074e-05 -8.60144e-05 8.39889e-06 -4.32688e-05 -8.60144e-05 0.000195276 -4.32688e-05 0.000189539 -5.36385e-06 -4.85085e-05 3.91181e-05 -0.000130127 -4.85085e-05 0.00047231 -0.000130127 0.000701143 3.91181e-05 -0.000130127 5.81551e-05 -0.000150503 -0.000130127 0.000701143 -0.000150503 0.000678516 0.00047231 -0.00293113 0.000701143 -0.00347167 -0.00293113 0.0459783 -0.00347167 0.0451386 0.000701143 -0.00347167 0.000678516 -0.00300364 -0.00347167 0.0451386 -0.00300364 0.0344908 5.81551e-05 -0.000150503 3.40315e-05 -7.71209e-05 -0.000150503 0.000678516 -7.71209e-05 0.000298698 3.40315e-05 -7.71209e-05 2.0578e-05 -4.04799e-05 -7.71209e-05 0.000298698 -4.04799e-05 0.000124906 0.000678516 -0.00300364 0.000298698 -0.00113051 -0.00300364 0.0344908 -0.00113051 0.0100146 0.000298698 -0.00113051 0.000124906 -0.000324539 -0.00113051 0.0100146 -0.000324539 0.000219599 0.00680312 0.0265075 0.0166391 0.0399995 0.0265075 0.033978 0.0399995 0.0479975 0.0166391 0.0399995 0.0385255 0.0642183 0.0399995 0.0479975 0.0642183 0.0714706 0.033978 0.0335785 0.0479975 0.0474451 0.0335785 0.0334122 0.0474451 0.0472957 0.0479975 0.0474451 0.0714706 0.0706966 0.0474451 0.0472957 0.0706966 0.0706434 0.0385255 0.0642183 0.0464066 0.0738874 0.0642183 0.0714706 0.0738874 0.0800148 0.0464066 0.0738874 0.0459783 0.0753432 0.0738874 0.0800148 0.0753432 0.0802097 0.0714706 0.0706966 0.0800148 0.0790049 0.0706966 0.0706434 0.0790049 0.0791096 0.0800148 0.0790049 0.0802097 0.0791048 0.0790049 0.0791096 0.0791048 0.079343 0.000189539 0.00179118 0.000766949 0.00367266 0.00179118 0.0020237 0.00367266 0.00454287 0.000766949 0.00367266 0.00248048 0.0103415 0.00367266 0.00454287 0.0103415 0.0130249 0.0020237 0.001972 0.00454287 0.00444032 0.001972 0.00198323 0.00444032 0.0044385 0.00454287 0.00444032 0.0130249 0.0128004 0.00444032 0.0044385 0.0128004 0.0127638 0.00248048 0.0103415 0.00482203 0.0191315 0.0103415 0.0130249 0.0191315 0.0244652 0.00482203 0.0191315 0.00680312 0.0265075 0.0191315 0.0244652 0.0265075 0.033978 0.0130249 0.0128004 0.0244652 0.0241465 0.0128004 0.0127638 0.0241465 0.0240367 0.0244652 0.0241465 0.033978 0.0335785 0.0241465 0.0240367 0.0335785 0.0334122 0.000219599 0.0335409 0.000211283 0.025112 0.0335409 0.0343018 0.025112 0.0257423 0.000211283 0.025112 0.000358204 0.014279 0.025112 0.0257423 0.014279 0.0147798 0.0343018 0.0338112 0.0257423 0.0253604 0.0338112 0.0340311 0.0253604 0.0255285 0.0257423 0.0253604 0.0147798 0.0145316 0.0253604 0.0255285 0.0145316 0.0146333 0.000358204 0.014279 0.000195276 0.00542085 0.014279 0.0147798 0.00542085 0.00570857 0.000195276 0.00542085 0.000189539 0.00179118 0.00542085 0.00570857 0.00179118 0.0020237 0.0147798 0.0145316 0.00570857 0.00559334 0.0145316 0.0146333 0.00559334 0.00563581 0.00570857 0.00559334 0.0020237 0.001972 0.00559334 0.00563581 0.001972 0.00198323 0.0459783 0.0753432 0.0451386 0.0763125 0.0753432 0.0802097 0.0763125 0.0799645 0.0451386 0.0763125 0.0344908 0.067962 0.0763125 0.0799645 0.067962 0.0704475 0.0802097 0.0791048 0.0799645 0.0789177 0.0791048 0.079343 0.0789177 0.0792221 0.0799645 0.0789177 0.0704475 0.0695648 0.0789177 0.0792221 0.0695648 0.0698734 0.0344908 0.067962 0.0100146 0.0458861 0.067962 0.0704475 0.0458861 0.0471919 0.0100146 0.0458861 0.000219599 0.0335409 0.0458861 0.0471919 0.0335409 0.0343018 0.0704475 0.0695648 0.0471919 0.0465491 0.0695648 0.0698734 0.0465491 0.0468134 0.0471919 0.0465491 0.0343018 0.0338112 0.0465491 0.0468134 0.0338112 0.0340311 
