# vtk DataFile Version 3.0
#This file was generated by the deal.II library on 2023/3/8 at 18:39:25
ASCII
DATASET UNSTRUCTURED_GRID

FIELD FieldData 2
CYCLE 1 1 int
177
TIME 1 1 double
0.354
POINTS 1024 double
2 0 0
1.84776 1.22465e-16 0.765367
2.07612 0.382683 0
1.91809 0.382683 0.794497
1.84776 1.22465e-16 0.765367
1.41421 1.22465e-16 1.41421
1.91809 0.382683 0.794497
1.46804 0.382683 1.46804
2.07612 0.382683 0
1.91809 0.382683 0.794497
2.29289 0.707107 0
2.11836 0.707107 0.877452
1.91809 0.382683 0.794497
1.46804 0.382683 1.46804
2.11836 0.707107 0.877452
1.62132 0.707107 1.62132
1.41421 1.22465e-16 1.41421
0.765367 1.22465e-16 1.84776
1.46804 0.382683 1.46804
0.794497 0.382683 1.91809
0.765367 1.22465e-16 1.84776
0 0 2
0.794497 0.382683 1.91809
1.27126e-16 0.382683 2.07612
1.46804 0.382683 1.46804
0.794497 0.382683 1.91809
1.62132 0.707107 1.62132
0.877452 0.707107 2.11836
0.794497 0.382683 1.91809
1.27126e-16 0.382683 2.07612
0.877452 0.707107 2.11836
1.40399e-16 0.707107 2.29289
2.29289 0.707107 0
2.11836 0.707107 0.877452
2.61732 0.92388 0
2.41809 0.92388 1.0016
2.11836 0.707107 0.877452
1.62132 0.707107 1.62132
2.41809 0.92388 1.0016
1.85072 0.92388 1.85072
2.61732 0.92388 0
2.41809 0.92388 1.0016
3 1 0
2.77164 1 1.14805
2.41809 0.92388 1.0016
1.85072 0.92388 1.85072
2.77164 1 1.14805
2.12132 1 2.12132
1.62132 0.707107 1.62132
0.877452 0.707107 2.11836
1.85072 0.92388 1.85072
1.0016 0.92388 2.41809
0.877452 0.707107 2.11836
1.40399e-16 0.707107 2.29289
1.0016 0.92388 2.41809
1.60264e-16 0.92388 2.61732
1.85072 0.92388 1.85072
1.0016 0.92388 2.41809
2.12132 1 2.12132
1.14805 1 2.77164
1.0016 0.92388 2.41809
1.60264e-16 0.92388 2.61732
1.14805 1 2.77164
0 1 3
3 -1 0
2.77164 -1 1.14805
2.61732 -0.92388 0
2.41809 -0.92388 1.0016
2.77164 -1 1.14805
2.12132 -1 2.12132
2.41809 -0.92388 1.0016
1.85072 -0.92388 1.85072
2.61732 -0.92388 0
2.41809 -0.92388 1.0016
2.29289 -0.707107 0
2.11836 -0.707107 0.877452
2.41809 -0.92388 1.0016
1.85072 -0.92388 1.85072
2.11836 -0.707107 0.877452
1.62132 -0.707107 1.62132
2.12132 -1 2.12132
1.14805 -1 2.77164
1.85072 -0.92388 1.85072
1.0016 -0.92388 2.41809
1.14805 -1 2.77164
0 -1 3
1.0016 -0.92388 2.41809
1.60264e-16 -0.92388 2.61732
1.85072 -0.92388 1.85072
1.0016 -0.92388 2.41809
1.62132 -0.707107 1.62132
0.877452 -0.707107 2.11836
1.0016 -0.92388 2.41809
1.60264e-16 -0.92388 2.61732
0.877452 -0.707107 2.11836
1.40399e-16 -0.707107 2.29289
2.29289 -0.707107 0
2.11836 -0.707107 0.877452
2.07612 -0.382683 0
1.91809 -0.382683 0.794497
2.11836 -0.707107 0.877452
1.62132 -0.707107 1.62132
1.91809 -0.382683 0.794497
1.46804 -0.382683 1.46804
2.07612 -0.382683 0
1.91809 -0.382683 0.794497
2 0 0
1.84776 1.22465e-16 0.765367
1.91809 -0.382683 0.794497
1.46804 -0.382683 1.46804
1.84776 1.22465e-16 0.765367
1.41421 1.22465e-16 1.41421
1.62132 -0.707107 1.62132
0.877452 -0.707107 2.11836
1.46804 -0.382683 1.46804
0.794497 -0.382683 1.91809
0.877452 -0.707107 2.11836
1.40399e-16 -0.707107 2.29289
0.794497 -0.382683 1.91809
1.27126e-16 -0.382683 2.07612
1.46804 -0.382683 1.46804
0.794497 -0.382683 1.91809
1.41421 1.22465e-16 1.41421
0.765367 1.22465e-16 1.84776
0.794497 -0.382683 1.91809
1.27126e-16 -0.382683 2.07612
0.765367 1.22465e-16 1.84776
0 0 2
4 0 0
3.69552 0 1.53073
3.92388 -0.382683 0
3.62519 -0.382683 1.5016
3.69552 0 1.53073
2.82843 0 2.82843
3.62519 -0.382683 1.5016
2.7746 -0.382683 2.7746
3.92388 -0.382683 0
3.62519 -0.382683 1.5016
3.70711 -0.707107 0
3.42492 -0.707107 1.41865
3.62519 -0.382683 1.5016
2.7746 -0.382683 2.7746
3.42492 -0.707107 1.41865
2.62132 -0.707107 2.62132
2.82843 0 2.82843
1.53073 0 3.69552
2.7746 -0.382683 2.7746
1.5016 -0.382683 3.62519
1.53073 0 3.69552
0 0 4
1.5016 -0.382683 3.62519
2.40268e-16 -0.382683 3.92388
2.7746 -0.382683 2.7746
1.5016 -0.382683 3.62519
2.62132 -0.707107 2.62132
1.41865 -0.707107 3.42492
1.5016 -0.382683 3.62519
2.40268e-16 -0.382683 3.92388
1.41865 -0.707107 3.42492
2.26995e-16 -0.707107 3.70711
3.70711 -0.707107 0
3.42492 -0.707107 1.41865
3.38268 -0.92388 0
3.12519 -0.92388 1.2945
3.42492 -0.707107 1.41865
2.62132 -0.707107 2.62132
3.12519 -0.92388 1.2945
2.39192 -0.92388 2.39192
3.38268 -0.92388 0
3.12519 -0.92388 1.2945
3 -1 0
2.77164 -1 1.14805
3.12519 -0.92388 1.2945
2.39192 -0.92388 2.39192
2.77164 -1 1.14805
2.12132 -1 2.12132
2.62132 -0.707107 2.62132
1.41865 -0.707107 3.42492
2.39192 -0.92388 2.39192
1.2945 -0.92388 3.12519
1.41865 -0.707107 3.42492
2.26995e-16 -0.707107 3.70711
1.2945 -0.92388 3.12519
2.0713e-16 -0.92388 3.38268
2.39192 -0.92388 2.39192
1.2945 -0.92388 3.12519
2.12132 -1 2.12132
1.14805 -1 2.77164
1.2945 -0.92388 3.12519
2.0713e-16 -0.92388 3.38268
1.14805 -1 2.77164
0 -1 3
3 1 0
2.77164 1 1.14805
3.38268 0.92388 0
3.12519 0.92388 1.2945
2.77164 1 1.14805
2.12132 1 2.12132
3.12519 0.92388 1.2945
2.39192 0.92388 2.39192
3.38268 0.92388 0
3.12519 0.92388 1.2945
3.70711 0.707107 0
3.42492 0.707107 1.41865
3.12519 0.92388 1.2945
2.39192 0.92388 2.39192
3.42492 0.707107 1.41865
2.62132 0.707107 2.62132
2.12132 1 2.12132
1.14805 1 2.77164
2.39192 0.92388 2.39192
1.2945 0.92388 3.12519
1.14805 1 2.77164
0 1 3
1.2945 0.92388 3.12519
2.0713e-16 0.92388 3.38268
2.39192 0.92388 2.39192
1.2945 0.92388 3.12519
2.62132 0.707107 2.62132
1.41865 0.707107 3.42492
1.2945 0.92388 3.12519
2.0713e-16 0.92388 3.38268
1.41865 0.707107 3.42492
2.26995e-16 0.707107 3.70711
3.70711 0.707107 0
3.42492 0.707107 1.41865
3.92388 0.382683 0
3.62519 0.382683 1.5016
3.42492 0.707107 1.41865
2.62132 0.707107 2.62132
3.62519 0.382683 1.5016
2.7746 0.382683 2.7746
3.92388 0.382683 0
3.62519 0.382683 1.5016
4 0 0
3.69552 0 1.53073
3.62519 0.382683 1.5016
2.7746 0.382683 2.7746
3.69552 0 1.53073
2.82843 0 2.82843
2.62132 0.707107 2.62132
1.41865 0.707107 3.42492
2.7746 0.382683 2.7746
1.5016 0.382683 3.62519
1.41865 0.707107 3.42492
2.26995e-16 0.707107 3.70711
1.5016 0.382683 3.62519
2.40268e-16 0.382683 3.92388
2.7746 0.382683 2.7746
1.5016 0.382683 3.62519
2.82843 0 2.82843
1.53073 0 3.69552
1.5016 0.382683 3.62519
2.40268e-16 0.382683 3.92388
1.53073 0 3.69552
0 0 4
0 0 2
-0.765367 1.22465e-16 1.84776
1.27126e-16 0.382683 2.07612
-0.794497 0.382683 1.91809
-0.765367 1.22465e-16 1.84776
-1.41421 1.22465e-16 1.41421
-0.794497 0.382683 1.91809
-1.46804 0.382683 1.46804
1.27126e-16 0.382683 2.07612
-0.794497 0.382683 1.91809
1.40399e-16 0.707107 2.29289
-0.877452 0.707107 2.11836
-0.794497 0.382683 1.91809
-1.46804 0.382683 1.46804
-0.877452 0.707107 2.11836
-1.62132 0.707107 1.62132
-1.41421 1.22465e-16 1.41421
-1.84776 1.22465e-16 0.765367
-1.46804 0.382683 1.46804
-1.91809 0.382683 0.794497
-1.84776 1.22465e-16 0.765367
-2 0 0
-1.91809 0.382683 0.794497
-2.07612 0.382683 2.54251e-16
-1.46804 0.382683 1.46804
-1.91809 0.382683 0.794497
-1.62132 0.707107 1.62132
-2.11836 0.707107 0.877452
-1.91809 0.382683 0.794497
-2.07612 0.382683 2.54251e-16
-2.11836 0.707107 0.877452
-2.29289 0.707107 2.80798e-16
1.40399e-16 0.707107 2.29289
-0.877452 0.707107 2.11836
1.60264e-16 0.92388 2.61732
-1.0016 0.92388 2.41809
-0.877452 0.707107 2.11836
-1.62132 0.707107 1.62132
-1.0016 0.92388 2.41809
-1.85072 0.92388 1.85072
1.60264e-16 0.92388 2.61732
-1.0016 0.92388 2.41809
0 1 3
-1.14805 1 2.77164
-1.0016 0.92388 2.41809
-1.85072 0.92388 1.85072
-1.14805 1 2.77164
-2.12132 1 2.12132
-1.62132 0.707107 1.62132
-2.11836 0.707107 0.877452
-1.85072 0.92388 1.85072
-2.41809 0.92388 1.0016
-2.11836 0.707107 0.877452
-2.29289 0.707107 2.80798e-16
-2.41809 0.92388 1.0016
-2.61732 0.92388 3.20529e-16
-1.85072 0.92388 1.85072
-2.41809 0.92388 1.0016
-2.12132 1 2.12132
-2.77164 1 1.14805
-2.41809 0.92388 1.0016
-2.61732 0.92388 3.20529e-16
-2.77164 1 1.14805
-3 1 0
0 -1 3
-1.14805 -1 2.77164
1.60264e-16 -0.92388 2.61732
-1.0016 -0.92388 2.41809
-1.14805 -1 2.77164
-2.12132 -1 2.12132
-1.0016 -0.92388 2.41809
-1.85072 -0.92388 1.85072
1.60264e-16 -0.92388 2.61732
-1.0016 -0.92388 2.41809
1.40399e-16 -0.707107 2.29289
-0.877452 -0.707107 2.11836
-1.0016 -0.92388 2.41809
-1.85072 -0.92388 1.85072
-0.877452 -0.707107 2.11836
-1.62132 -0.707107 1.62132
-2.12132 -1 2.12132
-2.77164 -1 1.14805
-1.85072 -0.92388 1.85072
-2.41809 -0.92388 1.0016
-2.77164 -1 1.14805
-3 -1 0
-2.41809 -0.92388 1.0016
-2.61732 -0.92388 3.20529e-16
-1.85072 -0.92388 1.85072
-2.41809 -0.92388 1.0016
-1.62132 -0.707107 1.62132
-2.11836 -0.707107 0.877452
-2.41809 -0.92388 1.0016
-2.61732 -0.92388 3.20529e-16
-2.11836 -0.707107 0.877452
-2.29289 -0.707107 2.80798e-16
1.40399e-16 -0.707107 2.29289
-0.877452 -0.707107 2.11836
1.27126e-16 -0.382683 2.07612
-0.794497 -0.382683 1.91809
-0.877452 -0.707107 2.11836
-1.62132 -0.707107 1.62132
-0.794497 -0.382683 1.91809
-1.46804 -0.382683 1.46804
1.27126e-16 -0.382683 2.07612
-0.794497 -0.382683 1.91809
0 0 2
-0.765367 1.22465e-16 1.84776
-0.794497 -0.382683 1.91809
-1.46804 -0.382683 1.46804
-0.765367 1.22465e-16 1.84776
-1.41421 1.22465e-16 1.41421
-1.62132 -0.707107 1.62132
-2.11836 -0.707107 0.877452
-1.46804 -0.382683 1.46804
-1.91809 -0.382683 0.794497
-2.11836 -0.707107 0.877452
-2.29289 -0.707107 2.80798e-16
-1.91809 -0.382683 0.794497
-2.07612 -0.382683 2.54251e-16
-1.46804 -0.382683 1.46804
-1.91809 -0.382683 0.794497
-1.41421 1.22465e-16 1.41421
-1.84776 1.22465e-16 0.765367
-1.91809 -0.382683 0.794497
-2.07612 -0.382683 2.54251e-16
-1.84776 1.22465e-16 0.765367
-2 0 0
0 0 4
-1.53073 0 3.69552
2.40268e-16 -0.382683 3.92388
-1.5016 -0.382683 3.62519
-1.53073 0 3.69552
-2.82843 0 2.82843
-1.5016 -0.382683 3.62519
-2.7746 -0.382683 2.7746
2.40268e-16 -0.382683 3.92388
-1.5016 -0.382683 3.62519
2.26995e-16 -0.707107 3.70711
-1.41865 -0.707107 3.42492
-1.5016 -0.382683 3.62519
-2.7746 -0.382683 2.7746
-1.41865 -0.707107 3.42492
-2.62132 -0.707107 2.62132
-2.82843 0 2.82843
-3.69552 0 1.53073
-2.7746 -0.382683 2.7746
-3.62519 -0.382683 1.5016
-3.69552 0 1.53073
-4 0 0
-3.62519 -0.382683 1.5016
-3.92388 -0.382683 4.80537e-16
-2.7746 -0.382683 2.7746
-3.62519 -0.382683 1.5016
-2.62132 -0.707107 2.62132
-3.42492 -0.707107 1.41865
[...]
POINT_DATA 1024
SCALARS U double 1
LOOKUP_TABLE default
0.071765 0.0719652 0.0987839 0.0990246 0.0719652 0.0707732 0.0990246 0.098023 0.0987839 0.0990246 0.13537 0.135589 0.0990246 0.098023 0.135589 0.13526 0.0707732 0.0556528 0.098023 0.0809995 0.0556528 0.0217603 0.0809995 0.038836 0.098023 0.0809995 0.13526 0.118491 0.0809995 0.038836 0.118491 0.06982 0.13537 0.135589 0.150997 0.151088 0.135589 0.13526 0.151088 0.151619 0.150997 0.151088 0.152938 0.152859 0.151088 0.151619 0.152859 0.154055 0.13526 0.118491 0.151619 0.13638 0.118491 0.06982 0.13638 0.082409 0.151619 0.13638 0.154055 0.140971 0.13638 0.082409 0.140971 0.082849 0.0109621 0.0109854 0.0146898 0.0147438 0.0109854 0.0110254 0.0147438 0.014528 0.0146898 0.0147438 0.028734 0.0288179 0.0147438 0.014528 0.0288179 0.0283001 0.0110254 0.00879657 0.014528 0.0111743 0.00879657 0.00215515 0.0111743 0.00356693 0.014528 0.0111743 0.0283001 0.0218159 0.0111743 0.00356693 0.0218159 0.00745948 0.028734 0.0288179 0.0498968 0.0500351 0.0288179 0.0283001 0.0500351 0.0491159 0.0498968 0.0500351 0.071765 0.0719652 0.0500351 0.0491159 0.0719652 0.0707732 0.0283001 0.0218159 0.0491159 0.0380718 0.0218159 0.00745948 0.0380718 0.0138923 0.0491159 0.0380718 0.0707732 0.0556528 0.0380718 0.0138923 0.0556528 0.0217603 0.0725223 0.0722113 0.0531881 0.0529426 0.0722113 0.0734951 0.0529426 0.0539796 0.0531881 0.0529426 0.0329909 0.0328486 0.0529426 0.0539796 0.0328486 0.0335507 0.0734951 0.0680546 0.0539796 0.0495242 0.0680546 0.0110258 0.0495242 0.00621686 0.0539796 0.0495242 0.0335507 0.0301013 0.0495242 0.00621686 0.0301013 0.00359392 0.0329909 0.0328486 0.0175124 0.0174708 0.0328486 0.0335507 0.0174708 0.0178164 0.0175124 0.0174708 0.0109621 0.0109854 0.0174708 0.0178164 0.0109854 0.0110254 0.0335507 0.0301013 0.0178164 0.0152856 0.0301013 0.00359392 0.0152856 0.00229795 0.0178164 0.0152856 0.0110254 0.00879657 0.0152856 0.00229795 0.00879657 0.00215515 0.152938 0.152859 0.149451 0.149223 0.152859 0.154055 0.149223 0.150778 0.149451 0.149223 0.132253 0.131932 0.149223 0.150778 0.131932 0.133571 0.154055 0.140971 0.150778 0.139878 0.140971 0.082849 0.139878 0.0791207 0.150778 0.139878 0.133571 0.124724 0.139878 0.0791207 0.124724 0.0621648 0.132253 0.131932 0.0966931 0.0963605 0.131932 0.133571 0.0963605 0.097834 0.0966931 0.0963605 0.0725223 0.0722113 0.0963605 0.097834 0.0722113 0.0734951 0.133571 0.124724 0.097834 0.091046 0.124724 0.0621648 0.091046 0.0277622 0.097834 0.091046 0.0734951 0.0680546 0.091046 0.0277622 0.0680546 0.0110258 0.0217603 0.00329375 0.038836 0.0051351 0.00329375 -8.72735e-05 0.0051351 -0.000205319 0.038836 0.0051351 0.06982 0.00555891 0.0051351 -0.000205319 0.00555891 -0.000368019 -8.72735e-05 -5.60922e-05 -0.000205319 -6.22229e-05 -5.60922e-05 1.80469e-05 -6.22229e-05 2.22633e-05 -0.000205319 -6.22229e-05 -0.000368019 -3.15758e-05 -6.22229e-05 2.22633e-05 -3.15758e-05 1.57329e-05 0.06982 0.00555891 0.082409 0.00447803 0.00555891 -0.000368019 0.00447803 -0.000388189 0.082409 0.00447803 0.082849 0.00247131 0.00447803 -0.000388189 0.00247131 -0.000258808 -0.000368019 -3.15758e-05 -0.000388189 -2.55264e-05 -3.15758e-05 1.57329e-05 -2.55264e-05 2.91965e-05 -0.000388189 -2.55264e-05 -0.000258808 -2.68864e-05 -2.55264e-05 2.91965e-05 -2.68864e-05 3.67749e-05 0.00215515 -6.02327e-05 0.00356693 0.000187316 -6.02327e-05 -1.57001e-05 0.000187316 -4.95523e-05 0.00356693 0.000187316 0.00745948 0.000632948 0.000187316 -4.95523e-05 0.000632948 -7.55462e-05 -1.57001e-05 3.52483e-06 -4.95523e-05 1.25247e-06 3.52483e-06 -9.42181e-07 1.25247e-06 1.90526e-06 -4.95523e-05 1.25247e-06 -7.55462e-05 -6.14858e-06 1.25247e-06 1.90526e-06 -6.14858e-06 4.37329e-06 0.00745948 0.000632948 0.0138923 0.00161392 0.000632948 -7.55462e-05 0.00161392 -8.58905e-05 0.0138923 0.00161392 0.0217603 0.00329375 0.00161392 -8.58905e-05 0.00329375 -8.72735e-05 -7.55462e-05 -6.14858e-06 -8.58905e-05 -2.36175e-05 -6.14858e-06 4.37329e-06 -2.36175e-05 7.80414e-06 -8.58905e-05 -2.36175e-05 -8.72735e-05 -5.60922e-05 -2.36175e-05 7.80414e-06 -5.60922e-05 1.80469e-05 0.0110258 -0.000344627 0.00621686 -0.000606503 -0.000344627 3.72861e-05 -0.000606503 0.000109735 0.00621686 -0.000606503 0.00359392 -0.000530639 -0.000606503 0.000109735 -0.000530639 9.05417e-05 3.72861e-05 -1.73289e-06 0.000109735 -1.77236e-05 -1.73289e-06 -4.34371e-07 -1.77236e-05 4.82502e-06 0.000109735 -1.77236e-05 9.05417e-05 -1.28092e-05 -1.77236e-05 4.82502e-06 -1.28092e-05 2.4873e-06 0.00359392 -0.000530639 0.00229795 -0.000301022 -0.000530639 9.05417e-05 -0.000301022 3.43767e-05 0.00229795 -0.000301022 0.00215515 -6.02327e-05 -0.000301022 3.43767e-05 -6.02327e-05 -1.57001e-05 9.05417e-05 -1.28092e-05 3.43767e-05 -1.81869e-06 -1.28092e-05 2.4873e-06 -1.81869e-06 -9.90142e-07 3.43767e-05 -1.81869e-06 -1.57001e-05 3.52483e-06 -1.81869e-06 -9.90142e-07 3.52483e-06 -9.42181e-07 0.082849 0.00247131 0.0791207 0.000127714 0.00247131 -0.000258808 0.000127714 2.40055e-05 0.0791207 0.000127714 0.0621648 -0.00116163 0.000127714 2.40055e-05 -0.00116163 0.000214872 -0.000258808 -2.68864e-05 2.40055e-05 -4.85478e-05 -2.68864e-05 3.67749e-05 -4.85478e-05 3.92612e-05 2.40055e-05 -4.85478e-05 0.000214872 -6.24548e-05 -4.85478e-05 3.92612e-05 -6.24548e-05 3.58587e-05 0.0621648 -0.00116163 0.0277622 -0.0003735 -0.00116163 0.000214872 -0.0003735 2.29117e-05 0.0277622 -0.0003735 0.0110258 -0.000344627 -0.0003735 2.29117e-05 -0.000344627 3.72861e-05 0.000214872 -6.24548e-05 2.29117e-05 -2.32675e-06 -6.24548e-05 3.58587e-05 -2.32675e-06 3.30641e-06 2.29117e-05 -2.32675e-06 3.72861e-05 -1.73289e-06 -2.32675e-06 3.30641e-06 -1.73289e-06 -4.34371e-07 1.80469e-05 -5.60861e-05 2.22633e-05 -6.22167e-05 -5.60861e-05 -8.72858e-05 -6.22167e-05 -0.000205344 2.22633e-05 -6.22167e-05 1.57329e-05 -3.1573e-05 -6.22167e-05 -0.000205344 -3.1573e-05 -0.00036804 -8.72858e-05 0.00329375 -0.000205344 0.00513509 0.00329375 0.0217603 0.00513509 0.0388359 -0.000205344 0.00513509 -0.00036804 0.00555889 0.00513509 0.0388359 0.00555889 0.0698199 1.57329e-05 -3.1573e-05 2.91965e-05 -2.55229e-05 -3.1573e-05 -0.00036804 -2.55229e-05 -0.000388198 2.91965e-05 -2.55229e-05 3.67749e-05 -2.68819e-05 -2.55229e-05 -0.000388198 -2.68819e-05 -0.000258806 -0.00036804 0.00555889 -0.000388198 0.00447802 0.00555889 0.0698199 0.00447802 0.082409 -0.000388198 0.00447802 -0.000258806 0.00247131 0.00447802 0.082409 0.00247131 0.0828489 -9.42181e-07 3.52437e-06 1.90526e-06 1.25461e-06 3.52437e-06 -1.56963e-05 1.25461e-06 -4.95522e-05 1.90526e-06 1.25461e-06 4.37329e-06 -6.15452e-06 1.25461e-06 -4.95522e-05 -6.15452e-06 -7.55378e-05 -1.56963e-05 -6.02289e-05 -4.95522e-05 0.00018733 -6.02289e-05 0.00215515 0.00018733 0.00356693 -4.95522e-05 0.00018733 -7.55378e-05 0.000632955 0.00018733 0.00356693 0.000632955 0.00745948 4.37329e-06 -6.15452e-06 7.80414e-06 -2.36128e-05 -6.15452e-06 -7.55378e-05 -2.36128e-05 -8.58909e-05 7.80414e-06 -2.36128e-05 1.80469e-05 -5.60861e-05 -2.36128e-05 -8.58909e-05 -5.60861e-05 -8.72858e-05 -7.55378e-05 0.000632955 -8.58909e-05 0.00161393 0.000632955 0.00745948 0.00161393 0.0138923 -8.58909e-05 0.00161393 -8.72858e-05 0.00329375 0.00161393 0.0138923 0.00329375 0.0217603 -4.34371e-07 -1.73464e-06 4.82502e-06 -1.77185e-05 -1.73464e-06 3.72905e-05 -1.77185e-05 0.000109727 4.82502e-06 -1.77185e-05 2.4873e-06 -1.28082e-05 -1.77185e-05 0.000109727 -1.28082e-05 9.05466e-05 3.72905e-05 -0.000344639 0.000109727 -0.000606507 -0.000344639 0.0110258 -0.000606507 0.00621685 0.000109727 -0.000606507 9.05466e-05 -0.00053065 -0.000606507 0.00621685 -0.00053065 0.00359392 2.4873e-06 -1.28082e-05 -9.90142e-07 -1.81678e-06 -1.28082e-05 9.05466e-05 -1.81678e-06 3.43747e-05 -9.90142e-07 -1.81678e-06 -9.42181e-07 3.52437e-06 -1.81678e-06 3.43747e-05 3.52437e-06 -1.56963e-05 9.05466e-05 -0.00053065 3.43747e-05 -0.000301019 -0.00053065 0.00359392 -0.000301019 0.00229794 3.43747e-05 -0.000301019 -1.56963e-05 -6.02289e-05 -0.000301019 0.00229794 -6.02289e-05 0.00215515 3.67749e-05 -2.68819e-05 3.92612e-05 -4.85455e-05 -2.68819e-05 -0.000258806 -4.85455e-05 2.40237e-05 3.92612e-05 -4.85455e-05 3.58587e-05 -6.24613e-05 -4.85455e-05 2.40237e-05 -6.24613e-05 0.000214898 -0.000258806 0.00247131 2.40237e-05 0.000127714 0.00247131 0.0828489 0.000127714 0.0791207 2.40237e-05 0.000127714 0.000214898 -0.00116162 0.000127714 0.0791207 -0.00116162 0.0621648 3.58587e-05 -6.24613e-05 3.30641e-06 -2.32808e-06 -6.24613e-05 0.000214898 -2.32808e-06 2.29177e-05 3.30641e-06 -2.32808e-06 -4.34371e-07 -1.73464e-06 -2.32808e-06 2.29177e-05 -1.73464e-06 3.72905e-05 0.000214898 -0.00116162 2.29177e-05 -0.000373504 -0.00116162 0.0621648 -0.000373504 0.0277622 2.29177e-05 -0.000373504 3.72905e-05 -0.000344639 -0.000373504 0.0277622 -0.000344639 0.0110258 0.0217603 0.0556528 0.0388359 0.0809994 0.0556528 0.0707732 0.0809994 0.098023 0.0388359 0.0809994 0.0698199 0.118491 0.0809994 0.098023 0.118491 0.13526 0.0707732 0.0719652 0.098023 0.0990246 0.0719652 0.071765 0.0990246 0.0987839 0.098023 0.0990246 0.13526 0.135589 0.0990246 0.0987839 0.135589 0.13537 0.0698199 0.118491 0.082409 0.13638 0.118491 0.13526 0.13638 0.151619 0.082409 0.13638 0.0828489 0.140971 0.13638 0.151619 0.140971 0.154055 0.13526 0.135589 0.151619 0.151088 0.135589 0.13537 0.151088 0.150997 0.151619 0.151088 0.154055 0.152859 0.151088 0.150997 0.152859 0.152938 0.00215515 0.00879658 0.00356693 0.0111743 0.00879658 0.0110254 0.0111743 0.014528 0.00356693 0.0111743 0.00745948 0.0218159 0.0111743 0.014528 0.0218159 0.0283 0.0110254 0.0109854 0.014528 0.0147438 0.0109854 0.0109621 0.0147438 0.0146898 0.014528 0.0147438 0.0283 0.0288179 0.0147438 0.0146898 0.0288179 0.028734 0.00745948 0.0218159 0.0138923 0.0380717 0.0218159 0.0283 0.0380717 0.0491159 0.0138923 0.0380717 0.0217603 0.0556528 0.0380717 0.0491159 0.0556528 0.0707732 0.0283 0.0288179 0.0491159 0.0500351 0.0288179 0.028734 0.0500351 0.0498968 0.0491159 0.0500351 0.0707732 0.0719652 0.0500351 0.0498968 0.0719652 0.071765 0.0110258 0.0680546 0.00621685 0.0495242 0.0680546 0.0734951 0.0495242 0.0539797 0.00621685 0.0495242 0.00359392 0.0301013 0.0495242 0.0539797 0.0301013 0.0335507 0.0734951 0.0722113 0.0539797 0.0529426 0.0722113 0.0725223 0.0529426 0.0531881 0.0539797 0.0529426 0.0335507 0.0328486 0.0529426 0.0531881 0.0328486 0.0329909 0.00359392 0.0301013 0.00229794 0.0152856 0.0301013 0.0335507 0.0152856 0.0178164 0.00229794 0.0152856 0.00215515 0.00879658 0.0152856 0.0178164 0.00879658 0.0110254 0.0335507 0.0328486 0.0178164 0.0174708 0.0328486 0.0329909 0.0174708 0.0175124 0.0178164 0.0174708 0.0110254 0.0109854 0.0174708 0.0175124 0.0109854 0.0109621 0.0828489 0.140971 0.0791207 0.139878 0.140971 0.154055 0.139878 0.150778 0.0791207 0.139878 0.0621648 0.124724 0.139878 0.150778 0.124724 0.133571 0.154055 0.152859 0.150778 0.149223 0.152859 0.152938 0.149223 0.149451 0.150778 0.149223 0.133571 0.131932 0.149223 0.149451 0.131932 0.132253 0.0621648 0.124724 0.0277622 0.091046 0.124724 0.133571 0.091046 0.097834 0.0277622 0.091046 0.0110258 0.0680546 0.091046 0.097834 0.0680546 0.0734951 0.133571 0.131932 0.097834 0.0963605 0.131932 0.132253 0.0963605 0.0966931 0.097834 0.0963605 0.0734951 0.0722113 0.0963605 0.0966931 0.0722113 0.0725223 
