# vtk DataFile Version 3.0
#This file was generated by the deal.II library on 2023/3/9 at 14:21:08
ASCII
DATASET UNSTRUCTURED_GRID

FIELD FieldData 2
CYCLE 1 1 int
118
TIME 1 1 double
0.236
POINTS 64 double
2 0 0
0 0 2
3 1 0
0 1 3
3 -1 0
0 -1 3
2 0 0
0 0 2
4 0 0
0 0 4
3 -1 0
0 -1 3
3 1 0
0 1 3
4 0 0
0 0 4
0 0 2
-2 0 0
0 1 3
-3 1 0
0 -1 3
-3 -1 0
0 0 2
-2 0 0
0 0 4
-4 0 0
0 -1 3
-3 -1 0
0 1 3
-3 1 0
0 0 4
-4 0 0
-2 0 0
0 0 -2
-3 1 0
0 1 -3
-3 -1 0
0 -1 -3
-2 0 0
0 0 -2
-4 0 0
0 0 -4
-3 -1 0
0 -1 -3
-3 1 0
0 1 -3
-4 0 0
0 0 -4
0 0 -2
2 0 0
0 1 -3
3 1 0
0 -1 -3
3 -1 0
0 0 -2
2 0 0
0 0 -4
4 0 0
0 -1 -3
3 -1 0
0 1 -3
3 1 0
0 0 -4
4 0 0

CELLS 16 80
4	0	1	3	2
4	4	5	7	6
4	8	9	11	10
4	12	13	15	14
4	16	17	19	18
4	20	21	23	22
4	24	25	27	26
4	28	29	31	30
4	32	33	35	34
4	36	37	39	38
4	40	41	43	42
4	44	45	47	46
4	48	49	51	50
4	52	53	55	54
4	56	57	59	58
4	60	61	63	62

CELL_TYPES 16
 9 9 9 9 9 9 9 9 9 9 9 9 9 9 9 9
POINT_DATA 64
SCALARS U double 1
LOOKUP_TABLE default
-47.6547 29.1014 25.1574 28.4872 25.1574 28.4872 -47.6547 29.1014 17.2038 27.9392 25.1574 28.4872 25.1574 28.4872 17.2038 27.9392 29.1014 32.9504 28.4872 -39.6153 28.4872 -39.6153 29.1014 32.9504 27.9392 -31.5042 28.4872 -39.6153 28.4872 -39.6153 27.9392 -31.5042 32.9504 29.1014 -39.6153 28.4872 -39.6153 28.4872 32.9504 29.1014 -31.5042 27.9392 -39.6153 28.4872 -39.6153 28.4872 -31.5042 27.9392 29.1014 -47.6547 28.4872 25.1574 28.4872 25.1574 29.1014 -47.6547 27.9392 17.2038 28.4872 25.1574 28.4872 25.1574 27.9392 17.2038 
