# vtk DataFile Version 3.0
#This file was generated by the deal.II library on 2023/3/8 at 18:39:25
ASCII
DATASET UNSTRUCTURED_GRID

FIELD FieldData 2
CYCLE 1 1 int
165
TIME 1 1 double
0.33
POINTS 1024 double
2 0 0
1.84776 1.22465e-16 0.765367
2.07612 0.382683 0
1.91809 0.382683 0.794497
1.84776 1.22465e-16 0.765367
1.41421 1.22465e-16 1.41421
1.91809 0.382683 0.794497
1.46804 0.382683 1.46804
2.07612 0.382683 0
1.91809 0.382683 0.794497
2.29289 0.707107 0
2.11836 0.707107 0.877452
1.91809 0.382683 0.794497
1.46804 0.382683 1.46804
2.11836 0.707107 0.877452
1.62132 0.707107 1.62132
1.41421 1.22465e-16 1.41421
0.765367 1.22465e-16 1.84776
1.46804 0.382683 1.46804
0.794497 0.382683 1.91809
0.765367 1.22465e-16 1.84776
0 0 2
0.794497 0.382683 1.91809
1.27126e-16 0.382683 2.07612
1.46804 0.382683 1.46804
0.794497 0.382683 1.91809
1.62132 0.707107 1.62132
0.877452 0.707107 2.11836
0.794497 0.382683 1.91809
1.27126e-16 0.382683 2.07612
0.877452 0.707107 2.11836
1.40399e-16 0.707107 2.29289
2.29289 0.707107 0
2.11836 0.707107 0.877452
2.61732 0.92388 0
2.41809 0.92388 1.0016
2.11836 0.707107 0.877452
1.62132 0.707107 1.62132
2.41809 0.92388 1.0016
1.85072 0.92388 1.85072
2.61732 0.92388 0
2.41809 0.92388 1.0016
3 1 0
2.77164 1 1.14805
2.41809 0.92388 1.0016
1.85072 0.92388 1.85072
2.77164 1 1.14805
2.12132 1 2.12132
1.62132 0.707107 1.62132
0.877452 0.707107 2.11836
1.85072 0.92388 1.85072
1.0016 0.92388 2.41809
0.877452 0.707107 2.11836
1.40399e-16 0.707107 2.29289
1.0016 0.92388 2.41809
1.60264e-16 0.92388 2.61732
1.85072 0.92388 1.85072
1.0016 0.92388 2.41809
2.12132 1 2.12132
1.14805 1 2.77164
1.0016 0.92388 2.41809
1.60264e-16 0.92388 2.61732
1.14805 1 2.77164
0 1 3
3 -1 0
2.77164 -1 1.14805
2.61732 -0.92388 0
2.41809 -0.92388 1.0016
2.77164 -1 1.14805
2.12132 -1 2.12132
2.41809 -0.92388 1.0016
1.85072 -0.92388 1.85072
2.61732 -0.92388 0
2.41809 -0.92388 1.0016
2.29289 -0.707107 0
2.11836 -0.707107 0.877452
2.41809 -0.92388 1.0016
1.85072 -0.92388 1.85072
2.11836 -0.707107 0.877452
1.62132 -0.707107 1.62132
2.12132 -1 2.12132
1.14805 -1 2.77164
1.85072 -0.92388 1.85072
1.0016 -0.92388 2.41809
1.14805 -1 2.77164
0 -1 3
1.0016 -0.92388 2.41809
1.60264e-16 -0.92388 2.61732
1.85072 -0.92388 1.85072
1.0016 -0.92388 2.41809
1.62132 -0.707107 1.62132
0.877452 -0.707107 2.11836
1.0016 -0.92388 2.41809
1.60264e-16 -0.92388 2.61732
0.877452 -0.707107 2.11836
1.40399e-16 -0.707107 2.29289
2.29289 -0.707107 0
2.11836 -0.707107 0.877452
2.07612 -0.382683 0
1.91809 -0.382683 0.794497
2.11836 -0.707107 0.877452
1.62132 -0.707107 1.62132
1.91809 -0.382683 0.794497
1.46804 -0.382683 1.46804
2.07612 -0.382683 0
1.91809 -0.382683 0.794497
2 0 0
1.84776 1.22465e-16 0.765367
1.91809 -0.382683 0.794497
1.46804 -0.382683 1.46804
1.84776 1.22465e-16 0.765367
1.41421 1.22465e-16 1.41421
1.62132 -0.707107 1.62132
0.877452 -0.707107 2.11836
1.46804 -0.382683 1.46804
0.794497 -0.382683 1.91809
0.877452 -0.707107 2.11836
1.40399e-16 -0.707107 2.29289
0.794497 -0.382683 1.91809
1.27126e-16 -0.382683 2.07612
1.46804 -0.382683 1.46804
0.794497 -0.382683 1.91809
1.41421 1.22465e-16 1.41421
0.765367 1.22465e-16 1.84776
0.794497 -0.382683 1.91809
1.27126e-16 -0.382683 2.07612
0.765367 1.22465e-16 1.84776
0 0 2
4 0 0
3.69552 0 1.53073
3.92388 -0.382683 0
3.62519 -0.382683 1.5016
3.69552 0 1.53073
2.82843 0 2.82843
3.62519 -0.382683 1.5016
2.7746 -0.382683 2.7746
3.92388 -0.382683 0
3.62519 -0.382683 1.5016
3.70711 -0.707107 0
3.42492 -0.707107 1.41865
3.62519 -0.382683 1.5016
2.7746 -0.382683 2.7746
3.42492 -0.707107 1.41865
2.62132 -0.707107 2.62132
2.82843 0 2.82843
1.53073 0 3.69552
2.7746 -0.382683 2.7746
1.5016 -0.382683 3.62519
1.53073 0 3.69552
0 0 4
1.5016 -0.382683 3.62519
2.40268e-16 -0.382683 3.92388
2.7746 -0.382683 2.7746
1.5016 -0.382683 3.62519
2.62132 -0.707107 2.62132
1.41865 -0.707107 3.42492
1.5016 -0.382683 3.62519
2.40268e-16 -0.382683 3.92388
1.41865 -0.707107 3.42492
2.26995e-16 -0.707107 3.70711
3.70711 -0.707107 0
3.42492 -0.707107 1.41865
3.38268 -0.92388 0
3.12519 -0.92388 1.2945
3.42492 -0.707107 1.41865
2.62132 -0.707107 2.62132
3.12519 -0.92388 1.2945
2.39192 -0.92388 2.39192
3.38268 -0.92388 0
3.12519 -0.92388 1.2945
3 -1 0
2.77164 -1 1.14805
3.12519 -0.92388 1.2945
2.39192 -0.92388 2.39192
2.77164 -1 1.14805
2.12132 -1 2.12132
2.62132 -0.707107 2.62132
1.41865 -0.707107 3.42492
2.39192 -0.92388 2.39192
1.2945 -0.92388 3.12519
1.41865 -0.707107 3.42492
2.26995e-16 -0.707107 3.70711
1.2945 -0.92388 3.12519
2.0713e-16 -0.92388 3.38268
2.39192 -0.92388 2.39192
1.2945 -0.92388 3.12519
2.12132 -1 2.12132
1.14805 -1 2.77164
1.2945 -0.92388 3.12519
2.0713e-16 -0.92388 3.38268
1.14805 -1 2.77164
0 -1 3
3 1 0
2.77164 1 1.14805
3.38268 0.92388 0
3.12519 0.92388 1.2945
2.77164 1 1.14805
2.12132 1 2.12132
3.12519 0.92388 1.2945
2.39192 0.92388 2.39192
3.38268 0.92388 0
3.12519 0.92388 1.2945
3.70711 0.707107 0
3.42492 0.707107 1.41865
3.12519 0.92388 1.2945
2.39192 0.92388 2.39192
3.42492 0.707107 1.41865
2.62132 0.707107 2.62132
2.12132 1 2.12132
1.14805 1 2.77164
2.39192 0.92388 2.39192
1.2945 0.92388 3.12519
1.14805 1 2.77164
0 1 3
1.2945 0.92388 3.12519
2.0713e-16 0.92388 3.38268
2.39192 0.92388 2.39192
1.2945 0.92388 3.12519
2.62132 0.707107 2.62132
1.41865 0.707107 3.42492
1.2945 0.92388 3.12519
2.0713e-16 0.92388 3.38268
1.41865 0.707107 3.42492
2.26995e-16 0.707107 3.70711
3.70711 0.707107 0
3.42492 0.707107 1.41865
3.92388 0.382683 0
3.62519 0.382683 1.5016
3.42492 0.707107 1.41865
2.62132 0.707107 2.62132
3.62519 0.382683 1.5016
2.7746 0.382683 2.7746
3.92388 0.382683 0
3.62519 0.382683 1.5016
4 0 0
3.69552 0 1.53073
3.62519 0.382683 1.5016
2.7746 0.382683 2.7746
3.69552 0 1.53073
2.82843 0 2.82843
2.62132 0.707107 2.62132
1.41865 0.707107 3.42492
2.7746 0.382683 2.7746
1.5016 0.382683 3.62519
1.41865 0.707107 3.42492
2.26995e-16 0.707107 3.70711
1.5016 0.382683 3.62519
2.40268e-16 0.382683 3.92388
2.7746 0.382683 2.7746
1.5016 0.382683 3.62519
2.82843 0 2.82843
1.53073 0 3.69552
1.5016 0.382683 3.62519
2.40268e-16 0.382683 3.92388
1.53073 0 3.69552
0 0 4
0 0 2
-0.765367 1.22465e-16 1.84776
1.27126e-16 0.382683 2.07612
-0.794497 0.382683 1.91809
-0.765367 1.22465e-16 1.84776
-1.41421 1.22465e-16 1.41421
-0.794497 0.382683 1.91809
-1.46804 0.382683 1.46804
1.27126e-16 0.382683 2.07612
-0.794497 0.382683 1.91809
1.40399e-16 0.707107 2.29289
-0.877452 0.707107 2.11836
-0.794497 0.382683 1.91809
-1.46804 0.382683 1.46804
-0.877452 0.707107 2.11836
-1.62132 0.707107 1.62132
-1.41421 1.22465e-16 1.41421
-1.84776 1.22465e-16 0.765367
-1.46804 0.382683 1.46804
-1.91809 0.382683 0.794497
-1.84776 1.22465e-16 0.765367
-2 0 0
-1.91809 0.382683 0.794497
-2.07612 0.382683 2.54251e-16
-1.46804 0.382683 1.46804
-1.91809 0.382683 0.794497
-1.62132 0.707107 1.62132
-2.11836 0.707107 0.877452
-1.91809 0.382683 0.794497
-2.07612 0.382683 2.54251e-16
-2.11836 0.707107 0.877452
-2.29289 0.707107 2.80798e-16
1.40399e-16 0.707107 2.29289
-0.877452 0.707107 2.11836
1.60264e-16 0.92388 2.61732
-1.0016 0.92388 2.41809
-0.877452 0.707107 2.11836
-1.62132 0.707107 1.62132
-1.0016 0.92388 2.41809
-1.85072 0.92388 1.85072
1.60264e-16 0.92388 2.61732
-1.0016 0.92388 2.41809
0 1 3
-1.14805 1 2.77164
-1.0016 0.92388 2.41809
-1.85072 0.92388 1.85072
-1.14805 1 2.77164
-2.12132 1 2.12132
-1.62132 0.707107 1.62132
-2.11836 0.707107 0.877452
-1.85072 0.92388 1.85072
-2.41809 0.92388 1.0016
-2.11836 0.707107 0.877452
-2.29289 0.707107 2.80798e-16
-2.41809 0.92388 1.0016
-2.61732 0.92388 3.20529e-16
-1.85072 0.92388 1.85072
-2.41809 0.92388 1.0016
-2.12132 1 2.12132
-2.77164 1 1.14805
-2.41809 0.92388 1.0016
-2.61732 0.92388 3.20529e-16
-2.77164 1 1.14805
-3 1 0
0 -1 3
-1.14805 -1 2.77164
1.60264e-16 -0.92388 2.61732
-1.0016 -0.92388 2.41809
-1.14805 -1 2.77164
-2.12132 -1 2.12132
-1.0016 -0.92388 2.41809
-1.85072 -0.92388 1.85072
1.60264e-16 -0.92388 2.61732
-1.0016 -0.92388 2.41809
1.40399e-16 -0.707107 2.29289
-0.877452 -0.707107 2.11836
-1.0016 -0.92388 2.41809
-1.85072 -0.92388 1.85072
-0.877452 -0.707107 2.11836
-1.62132 -0.707107 1.62132
-2.12132 -1 2.12132
-2.77164 -1 1.14805
-1.85072 -0.92388 1.85072
-2.41809 -0.92388 1.0016
-2.77164 -1 1.14805
-3 -1 0
-2.41809 -0.92388 1.0016
-2.61732 -0.92388 3.20529e-16
-1.85072 -0.92388 1.85072
-2.41809 -0.92388 1.0016
-1.62132 -0.707107 1.62132
-2.11836 -0.707107 0.877452
-2.41809 -0.92388 1.0016
-2.61732 -0.92388 3.20529e-16
-2.11836 -0.707107 0.877452
-2.29289 -0.707107 2.80798e-16
1.40399e-16 -0.707107 2.29289
-0.877452 -0.707107 2.11836
1.27126e-16 -0.382683 2.07612
-0.794497 -0.382683 1.91809
-0.877452 -0.707107 2.11836
-1.62132 -0.707107 1.62132
-0.794497 -0.382683 1.91809
-1.46804 -0.382683 1.46804
1.27126e-16 -0.382683 2.07612
-0.794497 -0.382683 1.91809
0 0 2
-0.765367 1.22465e-16 1.84776
-0.794497 -0.382683 1.91809
-1.46804 -0.382683 1.46804
-0.765367 1.22465e-16 1.84776
-1.41421 1.22465e-16 1.41421
-1.62132 -0.707107 1.62132
-2.11836 -0.707107 0.877452
-1.46804 -0.382683 1.46804
-1.91809 -0.382683 0.794497
-2.11836 -0.707107 0.877452
-2.29289 -0.707107 2.80798e-16
-1.91809 -0.382683 0.794497
-2.07612 -0.382683 2.54251e-16
-1.46804 -0.382683 1.46804
-1.91809 -0.382683 0.794497
-1.41421 1.22465e-16 1.41421
-1.84776 1.22465e-16 0.765367
-1.91809 -0.382683 0.794497
-2.07612 -0.382683 2.54251e-16
-1.84776 1.22465e-16 0.765367
-2 0 0
0 0 4
-1.53073 0 3.69552
2.40268e-16 -0.382683 3.92388
-1.5016 -0.382683 3.62519
-1.53073 0 3.69552
-2.82843 0 2.82843
-1.5016 -0.382683 3.62519
-2.7746 -0.382683 2.7746
2.40268e-16 -0.382683 3.92388
-1.5016 -0.382683 3.62519
2.26995e-16 -0.707107 3.70711
-1.41865 -0.707107 3.42492
-1.5016 -0.382683 3.62519
-2.7746 -0.382683 2.7746
-1.41865 -0.707107 3.42492
-2.62132 -0.707107 2.62132
-2.82843 0 2.82843
-3.69552 0 1.53073
-2.7746 -0.382683 2.7746
-3.62519 -0.382683 1.5016
-3.69552 0 1.53073
-4 0 0
-3.62519 -0.382683 1.5016
-3.92388 -0.382683 4.80537e-16
-2.7746 -0.382683 2.7746
-3.62519 -0.382683 1.5016
-2.62132 -0.707107 2.62132
-3.42492 -0.707107 1.41865
[...]
POINT_DATA 1024
SCALARS U double 1
LOOKUP_TABLE default
0.0725452 0.0726782 0.093244 0.0933893 0.0726782 0.0719803 0.0933893 0.0929093 0.093244 0.0933893 0.132555 0.132614 0.0933893 0.0929093 0.132614 0.132857 0.0719803 0.0573611 0.0929093 0.0766274 0.0573611 0.0204948 0.0766274 0.0316739 0.0929093 0.0766274 0.132857 0.116604 0.0766274 0.0316739 0.116604 0.0672867 0.132555 0.132614 0.142989 0.142928 0.132614 0.132857 0.142928 0.14385 0.142989 0.142928 0.144678 0.144488 0.142928 0.14385 0.144488 0.14586 0.132857 0.116604 0.14385 0.129473 0.116604 0.0672867 0.129473 0.0743499 0.14385 0.129473 0.14586 0.133936 0.129473 0.0743499 0.133936 0.0740945 0.00923497 0.00925654 0.0131101 0.0131581 0.00925654 0.00930797 0.0131581 0.0130058 0.0131101 0.0131581 0.0277616 0.0278221 0.0131581 0.0130058 0.0278221 0.0274884 0.00930797 0.00742159 0.0130058 0.0100796 0.00742159 0.00179676 0.0100796 0.00304798 0.0130058 0.0100796 0.0274884 0.0214908 0.0100796 0.00304798 0.0214908 0.00662367 0.0277616 0.0278221 0.0503666 0.0504582 0.0278221 0.0274884 0.0504582 0.0499028 0.0503666 0.0504582 0.0725452 0.0726782 0.0504582 0.0499028 0.0726782 0.0719803 0.0274884 0.0214908 0.0499028 0.0392888 0.0214908 0.00662367 0.0392888 0.0130011 0.0499028 0.0392888 0.0719803 0.0573611 0.0392888 0.0130011 0.0573611 0.0204948 0.0732481 0.0729571 0.0535019 0.0532686 0.0729571 0.0740501 0.0532686 0.0541639 0.0535019 0.0532686 0.031815 0.0316766 0.0532686 0.0541639 0.0316766 0.0322988 0.0740501 0.0698567 0.0541639 0.0506696 0.0698567 0.00954053 0.0506696 0.00514977 0.0541639 0.0506696 0.0322988 0.0294839 0.0506696 0.00514977 0.0294839 0.00278014 0.031815 0.0316766 0.0157071 0.0156648 0.0316766 0.0322988 0.0156648 0.015983 0.0157071 0.0156648 0.00923497 0.00925654 0.0156648 0.015983 0.00925654 0.00930797 0.0322988 0.0294839 0.015983 0.0138539 0.0294839 0.00278014 0.0138539 0.00186811 0.015983 0.0138539 0.00930797 0.00742159 0.0138539 0.00186811 0.00742159 0.00179676 0.144678 0.144488 0.141513 0.141221 0.144488 0.14586 0.141221 0.142786 0.141513 0.141221 0.130031 0.129675 0.141221 0.142786 0.129675 0.131244 0.14586 0.133936 0.142786 0.133189 0.133936 0.0740945 0.133189 0.0703615 0.142786 0.133189 0.131244 0.123615 0.133189 0.0703615 0.123615 0.0591791 0.130031 0.129675 0.0915554 0.0912474 0.129675 0.131244 0.0912474 0.0924947 0.0915554 0.0912474 0.0732481 0.0729571 0.0912474 0.0924947 0.0729571 0.0740501 0.131244 0.123615 0.0924947 0.0872371 0.123615 0.0591791 0.0872371 0.020353 0.0924947 0.0872371 0.0740501 0.0698567 0.0872371 0.020353 0.0698567 0.00954053 0.0204948 0.00259186 0.0316739 0.00428146 0.00259186 -0.00010245 0.00428146 -0.000187793 0.0316739 0.00428146 0.0672867 0.00323351 0.00428146 -0.000187793 0.00323351 9.36878e-05 -0.00010245 -5.28695e-05 -0.000187793 -7.85339e-05 -5.28695e-05 2.37055e-05 -7.85339e-05 4.25357e-05 -0.000187793 -7.85339e-05 9.36878e-05 -0.000179092 -7.85339e-05 4.25357e-05 -0.000179092 0.000103266 0.0672867 0.00323351 0.0743499 0.0027201 0.00323351 9.36878e-05 0.0027201 -1.15375e-06 0.0743499 0.0027201 0.0740945 0.00131863 0.0027201 -1.15375e-06 0.00131863 1.29189e-05 9.36878e-05 -0.000179092 -1.15375e-06 -0.000157743 -0.000179092 0.000103266 -0.000157743 0.000111503 -1.15375e-06 -0.000157743 1.29189e-05 -0.000120924 -0.000157743 0.000111503 -0.000120924 9.64907e-05 0.00179676 -7.01596e-05 0.00304798 0.000114607 -7.01596e-05 -1.31612e-05 0.000114607 -4.44015e-05 0.00304798 0.000114607 0.00662367 0.000400274 0.000114607 -4.44015e-05 0.000400274 -6.44879e-05 -1.31612e-05 3.79022e-06 -4.44015e-05 1.72769e-06 3.79022e-06 -1.15606e-06 1.72769e-06 2.17172e-06 -4.44015e-05 1.72769e-06 -6.44879e-05 -6.31538e-06 1.72769e-06 2.17172e-06 -6.31538e-06 6.05515e-06 0.00662367 0.000400274 0.0130011 0.00113005 0.000400274 -6.44879e-05 0.00113005 -8.07712e-05 0.0130011 0.00113005 0.0204948 0.00259186 0.00113005 -8.07712e-05 0.00259186 -0.00010245 -6.44879e-05 -6.31538e-06 -8.07712e-05 -2.18841e-05 -6.31538e-06 6.05515e-06 -2.18841e-05 1.05012e-05 -8.07712e-05 -2.18841e-05 -0.00010245 -5.28695e-05 -2.18841e-05 1.05012e-05 -5.28695e-05 2.37055e-05 0.00954053 -0.000337172 0.00514977 -0.000567226 -0.000337172 4.29367e-05 -0.000567226 0.000113821 0.00514977 -0.000567226 0.00278014 -0.000481219 -0.000567226 0.000113821 -0.000481219 9.03975e-05 4.29367e-05 -3.22896e-06 0.000113821 -2.10245e-05 -3.22896e-06 -1.34901e-07 -2.10245e-05 6.78256e-06 0.000113821 -2.10245e-05 9.03975e-05 -1.47661e-05 -2.10245e-05 6.78256e-06 -1.47661e-05 3.8026e-06 0.00278014 -0.000481219 0.00186811 -0.000280339 -0.000481219 9.03975e-05 -0.000280339 3.59319e-05 0.00186811 -0.000280339 0.00179676 -7.01596e-05 -0.000280339 3.59319e-05 -7.01596e-05 -1.31612e-05 9.03975e-05 -1.47661e-05 3.59319e-05 -2.67989e-06 -1.47661e-05 3.8026e-06 -2.67989e-06 -5.99706e-07 3.59319e-05 -2.67989e-06 -1.31612e-05 3.79022e-06 -2.67989e-06 -5.99706e-07 3.79022e-06 -1.15606e-06 0.0740945 0.00131863 0.0703615 -0.000564181 0.00131863 1.29189e-05 -0.000564181 0.000215701 0.0703615 -0.000564181 0.0591791 -0.00194387 -0.000564181 0.000215701 -0.00194387 0.000445287 1.29189e-05 -0.000120924 0.000215701 -0.000115904 -0.000120924 9.64907e-05 -0.000115904 8.12406e-05 0.000215701 -0.000115904 0.000445287 -0.000135578 -0.000115904 8.12406e-05 -0.000135578 7.63408e-05 0.0591791 -0.00194387 0.020353 -1.25271e-05 -0.00194387 0.000445287 -1.25271e-05 -6.32134e-05 0.020353 -1.25271e-05 0.00954053 -0.000337172 -1.25271e-05 -6.32134e-05 -0.000337172 4.29367e-05 0.000445287 -0.000135578 -6.32134e-05 2.0734e-05 -0.000135578 7.63408e-05 2.0734e-05 -7.5868e-06 -6.32134e-05 2.0734e-05 4.29367e-05 -3.22896e-06 2.0734e-05 -7.5868e-06 -3.22896e-06 -1.34901e-07 2.37055e-05 -5.28527e-05 4.25357e-05 -7.85323e-05 -5.28527e-05 -0.000102473 -7.85323e-05 -0.000187808 4.25357e-05 -7.85323e-05 0.000103266 -0.000179084 -7.85323e-05 -0.000187808 -0.000179084 9.36613e-05 -0.000102473 0.00259187 -0.000187808 0.00428145 0.00259187 0.0204948 0.00428145 0.031674 -0.000187808 0.00428145 9.36613e-05 0.0032335 0.00428145 0.031674 0.0032335 0.0672867 0.000103266 -0.000179084 0.000111503 -0.000157743 -0.000179084 9.36613e-05 -0.000157743 -1.15185e-06 0.000111503 -0.000157743 9.64907e-05 -0.000120918 -0.000157743 -1.15185e-06 -0.000120918 1.29097e-05 9.36613e-05 0.0032335 -1.15185e-06 0.00272008 0.0032335 0.0672867 0.00272008 0.07435 -1.15185e-06 0.00272008 1.29097e-05 0.00131862 0.00272008 0.07435 0.00131862 0.0740945 -1.15606e-06 3.78702e-06 2.17172e-06 1.73e-06 3.78702e-06 -1.31556e-05 1.73e-06 -4.44003e-05 2.17172e-06 1.73e-06 6.05515e-06 -6.31851e-06 1.73e-06 -4.44003e-05 -6.31851e-06 -6.4484e-05 -1.31556e-05 -7.01638e-05 -4.44003e-05 0.000114621 -7.01638e-05 0.00179678 0.000114621 0.00304797 -4.44003e-05 0.000114621 -6.4484e-05 0.000400284 0.000114621 0.00304797 0.000400284 0.00662367 6.05515e-06 -6.31851e-06 1.05012e-05 -2.1887e-05 -6.31851e-06 -6.4484e-05 -2.1887e-05 -8.07637e-05 1.05012e-05 -2.1887e-05 2.37055e-05 -5.28527e-05 -2.1887e-05 -8.07637e-05 -5.28527e-05 -0.000102473 -6.4484e-05 0.000400284 -8.07637e-05 0.00113005 0.000400284 0.00662367 0.00113005 0.0130011 -8.07637e-05 0.00113005 -0.000102473 0.00259187 0.00113005 0.0130011 0.00259187 0.0204948 -1.34901e-07 -3.22721e-06 6.78256e-06 -2.10197e-05 -3.22721e-06 4.29425e-05 -2.10197e-05 0.00011381 6.78256e-06 -2.10197e-05 3.8026e-06 -1.47676e-05 -2.10197e-05 0.00011381 -1.47676e-05 9.04075e-05 4.29425e-05 -0.000337188 0.00011381 -0.000567221 -0.000337188 0.00954053 -0.000567221 0.00514977 0.00011381 -0.000567221 9.04075e-05 -0.00048124 -0.000567221 0.00514977 -0.00048124 0.00278015 3.8026e-06 -1.47676e-05 -5.99706e-07 -2.67363e-06 -1.47676e-05 9.04075e-05 -2.67363e-06 3.59243e-05 -5.99706e-07 -2.67363e-06 -1.15606e-06 3.78702e-06 -2.67363e-06 3.59243e-05 3.78702e-06 -1.31556e-05 9.04075e-05 -0.00048124 3.59243e-05 -0.000280321 -0.00048124 0.00278015 -0.000280321 0.00186809 3.59243e-05 -0.000280321 -1.31556e-05 -7.01638e-05 -0.000280321 0.00186809 -7.01638e-05 0.00179678 9.64907e-05 -0.000120918 8.12406e-05 -0.000115906 -0.000120918 1.29097e-05 -0.000115906 0.000215727 8.12406e-05 -0.000115906 7.63408e-05 -0.000135584 -0.000115906 0.000215727 -0.000135584 0.000445309 1.29097e-05 0.00131862 0.000215727 -0.000564189 0.00131862 0.0740945 -0.000564189 0.0703616 0.000215727 -0.000564189 0.000445309 -0.00194387 -0.000564189 0.0703616 -0.00194387 0.0591792 7.63408e-05 -0.000135584 -7.5868e-06 2.0732e-05 -0.000135584 0.000445309 2.0732e-05 -6.32104e-05 -7.5868e-06 2.0732e-05 -1.34901e-07 -3.22721e-06 2.0732e-05 -6.32104e-05 -3.22721e-06 4.29425e-05 0.000445309 -0.00194387 -6.32104e-05 -1.25289e-05 -0.00194387 0.0591792 -1.25289e-05 0.020353 -6.32104e-05 -1.25289e-05 4.29425e-05 -0.000337188 -1.25289e-05 0.020353 -0.000337188 0.00954053 0.0204948 0.0573611 0.031674 0.0766274 0.0573611 0.0719803 0.0766274 0.0929094 0.031674 0.0766274 0.0672867 0.116604 0.0766274 0.0929094 0.116604 0.132857 0.0719803 0.0726781 0.0929094 0.0933893 0.0726781 0.0725452 0.0933893 0.093244 0.0929094 0.0933893 0.132857 0.132614 0.0933893 0.093244 0.132614 0.132555 0.0672867 0.116604 0.07435 0.129473 0.116604 0.132857 0.129473 0.14385 0.07435 0.129473 0.0740945 0.133936 0.129473 0.14385 0.133936 0.14586 0.132857 0.132614 0.14385 0.142928 0.132614 0.132555 0.142928 0.142989 0.14385 0.142928 0.14586 0.144488 0.142928 0.142989 0.144488 0.144678 0.00179678 0.00742159 0.00304797 0.0100796 0.00742159 0.00930797 0.0100796 0.0130058 0.00304797 0.0100796 0.00662367 0.0214908 0.0100796 0.0130058 0.0214908 0.0274884 0.00930797 0.00925653 0.0130058 0.0131581 0.00925653 0.00923497 0.0131581 0.0131101 0.0130058 0.0131581 0.0274884 0.0278221 0.0131581 0.0131101 0.0278221 0.0277616 0.00662367 0.0214908 0.0130011 0.0392888 0.0214908 0.0274884 0.0392888 0.0499028 0.0130011 0.0392888 0.0204948 0.0573611 0.0392888 0.0499028 0.0573611 0.0719803 0.0274884 0.0278221 0.0499028 0.0504582 0.0278221 0.0277616 0.0504582 0.0503666 0.0499028 0.0504582 0.0719803 0.0726781 0.0504582 0.0503666 0.0726781 0.0725452 0.00954053 0.0698567 0.00514977 0.0506696 0.0698567 0.0740501 0.0506696 0.0541639 0.00514977 0.0506696 0.00278015 0.0294839 0.0506696 0.0541639 0.0294839 0.0322988 0.0740501 0.0729571 0.0541639 0.0532685 0.0729571 0.0732481 0.0532685 0.0535019 0.0541639 0.0532685 0.0322988 0.0316766 0.0532685 0.0535019 0.0316766 0.031815 0.00278015 0.0294839 0.00186809 0.013854 0.0294839 0.0322988 0.013854 0.0159829 0.00186809 0.013854 0.00179678 0.00742159 0.013854 0.0159829 0.00742159 0.00930797 0.0322988 0.0316766 0.0159829 0.0156648 0.0316766 0.031815 0.0156648 0.0157071 0.0159829 0.0156648 0.00930797 0.00925653 0.0156648 0.0157071 0.00925653 0.00923497 0.0740945 0.133936 0.0703616 0.133189 0.133936 0.14586 0.133189 0.142786 0.0703616 0.133189 0.0591792 0.123615 0.133189 0.142786 0.123615 0.131244 0.14586 0.144488 0.142786 0.141221 0.144488 0.144678 0.141221 0.141513 0.142786 0.141221 0.131244 0.129675 0.141221 0.141513 0.129675 0.130031 0.0591792 0.123615 0.020353 0.0872371 0.123615 0.131244 0.0872371 0.0924947 0.020353 0.0872371 0.00954053 0.0698567 0.0872371 0.0924947 0.0698567 0.0740501 0.131244 0.129675 0.0924947 0.0912474 0.129675 0.130031 0.0912474 0.0915554 0.0924947 0.0912474 0.0740501 0.0729571 0.0912474 0.0915554 0.0729571 0.0732481 
