# vtk DataFile Version 3.0
#This file was generated by the deal.II library on 2023/3/8 at 18:39:27
ASCII
DATASET UNSTRUCTURED_GRID

FIELD FieldData 2
CYCLE 1 1 int
241
TIME 1 1 double
0.482
POINTS 1024 double
2 0 0
1.84776 1.22465e-16 0.765367
2.07612 0.382683 0
1.91809 0.382683 0.794497
1.84776 1.22465e-16 0.765367
1.41421 1.22465e-16 1.41421
1.91809 0.382683 0.794497
1.46804 0.382683 1.46804
2.07612 0.382683 0
1.91809 0.382683 0.794497
2.29289 0.707107 0
2.11836 0.707107 0.877452
1.91809 0.382683 0.794497
1.46804 0.382683 1.46804
2.11836 0.707107 0.877452
1.62132 0.707107 1.62132
1.41421 1.22465e-16 1.41421
0.765367 1.22465e-16 1.84776
1.46804 0.382683 1.46804
0.794497 0.382683 1.91809
0.765367 1.22465e-16 1.84776
0 0 2
0.794497 0.382683 1.91809
1.27126e-16 0.382683 2.07612
1.46804 0.382683 1.46804
0.794497 0.382683 1.91809
1.62132 0.707107 1.62132
0.877452 0.707107 2.11836
0.794497 0.382683 1.91809
1.27126e-16 0.382683 2.07612
0.877452 0.707107 2.11836
1.40399e-16 0.707107 2.29289
2.29289 0.707107 0
2.11836 0.707107 0.877452
2.61732 0.92388 0
2.41809 0.92388 1.0016
2.11836 0.707107 0.877452
1.62132 0.707107 1.62132
2.41809 0.92388 1.0016
1.85072 0.92388 1.85072
2.61732 0.92388 0
2.41809 0.92388 1.0016
3 1 0
2.77164 1 1.14805
2.41809 0.92388 1.0016
1.85072 0.92388 1.85072
2.77164 1 1.14805
2.12132 1 2.12132
1.62132 0.707107 1.62132
0.877452 0.707107 2.11836
1.85072 0.92388 1.85072
1.0016 0.92388 2.41809
0.877452 0.707107 2.11836
1.40399e-16 0.707107 2.29289
1.0016 0.92388 2.41809
1.60264e-16 0.92388 2.61732
1.85072 0.92388 1.85072
1.0016 0.92388 2.41809
2.12132 1 2.12132
1.14805 1 2.77164
1.0016 0.92388 2.41809
1.60264e-16 0.92388 2.61732
1.14805 1 2.77164
0 1 3
3 -1 0
2.77164 -1 1.14805
2.61732 -0.92388 0
2.41809 -0.92388 1.0016
2.77164 -1 1.14805
2.12132 -1 2.12132
2.41809 -0.92388 1.0016
1.85072 -0.92388 1.85072
2.61732 -0.92388 0
2.41809 -0.92388 1.0016
2.29289 -0.707107 0
2.11836 -0.707107 0.877452
2.41809 -0.92388 1.0016
1.85072 -0.92388 1.85072
2.11836 -0.707107 0.877452
1.62132 -0.707107 1.62132
2.12132 -1 2.12132
1.14805 -1 2.77164
1.85072 -0.92388 1.85072
1.0016 -0.92388 2.41809
1.14805 -1 2.77164
0 -1 3
1.0016 -0.92388 2.41809
1.60264e-16 -0.92388 2.61732
1.85072 -0.92388 1.85072
1.0016 -0.92388 2.41809
1.62132 -0.707107 1.62132
0.877452 -0.707107 2.11836
1.0016 -0.92388 2.41809
1.60264e-16 -0.92388 2.61732
0.877452 -0.707107 2.11836
1.40399e-16 -0.707107 2.29289
2.29289 -0.707107 0
2.11836 -0.707107 0.877452
2.07612 -0.382683 0
1.91809 -0.382683 0.794497
2.11836 -0.707107 0.877452
1.62132 -0.707107 1.62132
1.91809 -0.382683 0.794497
1.46804 -0.382683 1.46804
2.07612 -0.382683 0
1.91809 -0.382683 0.794497
2 0 0
1.84776 1.22465e-16 0.765367
1.91809 -0.382683 0.794497
1.46804 -0.382683 1.46804
1.84776 1.22465e-16 0.765367
1.41421 1.22465e-16 1.41421
1.62132 -0.707107 1.62132
0.877452 -0.707107 2.11836
1.46804 -0.382683 1.46804
0.794497 -0.382683 1.91809
0.877452 -0.707107 2.11836
1.40399e-16 -0.707107 2.29289
0.794497 -0.382683 1.91809
1.27126e-16 -0.382683 2.07612
1.46804 -0.382683 1.46804
0.794497 -0.382683 1.91809
1.41421 1.22465e-16 1.41421
0.765367 1.22465e-16 1.84776
0.794497 -0.382683 1.91809
1.27126e-16 -0.382683 2.07612
0.765367 1.22465e-16 1.84776
0 0 2
4 0 0
3.69552 0 1.53073
3.92388 -0.382683 0
3.62519 -0.382683 1.5016
3.69552 0 1.53073
2.82843 0 2.82843
3.62519 -0.382683 1.5016
2.7746 -0.382683 2.7746
3.92388 -0.382683 0
3.62519 -0.382683 1.5016
3.70711 -0.707107 0
3.42492 -0.707107 1.41865
3.62519 -0.382683 1.5016
2.7746 -0.382683 2.7746
3.42492 -0.707107 1.41865
2.62132 -0.707107 2.62132
2.82843 0 2.82843
1.53073 0 3.69552
2.7746 -0.382683 2.7746
1.5016 -0.382683 3.62519
1.53073 0 3.69552
0 0 4
1.5016 -0.382683 3.62519
2.40268e-16 -0.382683 3.92388
2.7746 -0.382683 2.7746
1.5016 -0.382683 3.62519
2.62132 -0.707107 2.62132
1.41865 -0.707107 3.42492
1.5016 -0.382683 3.62519
2.40268e-16 -0.382683 3.92388
1.41865 -0.707107 3.42492
2.26995e-16 -0.707107 3.70711
3.70711 -0.707107 0
3.42492 -0.707107 1.41865
3.38268 -0.92388 0
3.12519 -0.92388 1.2945
3.42492 -0.707107 1.41865
2.62132 -0.707107 2.62132
3.12519 -0.92388 1.2945
2.39192 -0.92388 2.39192
3.38268 -0.92388 0
3.12519 -0.92388 1.2945
3 -1 0
2.77164 -1 1.14805
3.12519 -0.92388 1.2945
2.39192 -0.92388 2.39192
2.77164 -1 1.14805
2.12132 -1 2.12132
2.62132 -0.707107 2.62132
1.41865 -0.707107 3.42492
2.39192 -0.92388 2.39192
1.2945 -0.92388 3.12519
1.41865 -0.707107 3.42492
2.26995e-16 -0.707107 3.70711
1.2945 -0.92388 3.12519
2.0713e-16 -0.92388 3.38268
2.39192 -0.92388 2.39192
1.2945 -0.92388 3.12519
2.12132 -1 2.12132
1.14805 -1 2.77164
1.2945 -0.92388 3.12519
2.0713e-16 -0.92388 3.38268
1.14805 -1 2.77164
0 -1 3
3 1 0
2.77164 1 1.14805
3.38268 0.92388 0
3.12519 0.92388 1.2945
2.77164 1 1.14805
2.12132 1 2.12132
3.12519 0.92388 1.2945
2.39192 0.92388 2.39192
3.38268 0.92388 0
3.12519 0.92388 1.2945
3.70711 0.707107 0
3.42492 0.707107 1.41865
3.12519 0.92388 1.2945
2.39192 0.92388 2.39192
3.42492 0.707107 1.41865
2.62132 0.707107 2.62132
2.12132 1 2.12132
1.14805 1 2.77164
2.39192 0.92388 2.39192
1.2945 0.92388 3.12519
1.14805 1 2.77164
0 1 3
1.2945 0.92388 3.12519
2.0713e-16 0.92388 3.38268
2.39192 0.92388 2.39192
1.2945 0.92388 3.12519
2.62132 0.707107 2.62132
1.41865 0.707107 3.42492
1.2945 0.92388 3.12519
2.0713e-16 0.92388 3.38268
1.41865 0.707107 3.42492
2.26995e-16 0.707107 3.70711
3.70711 0.707107 0
3.42492 0.707107 1.41865
3.92388 0.382683 0
3.62519 0.382683 1.5016
3.42492 0.707107 1.41865
2.62132 0.707107 2.62132
3.62519 0.382683 1.5016
2.7746 0.382683 2.7746
3.92388 0.382683 0
3.62519 0.382683 1.5016
4 0 0
3.69552 0 1.53073
3.62519 0.382683 1.5016
2.7746 0.382683 2.7746
3.69552 0 1.53073
2.82843 0 2.82843
2.62132 0.707107 2.62132
1.41865 0.707107 3.42492
2.7746 0.382683 2.7746
1.5016 0.382683 3.62519
1.41865 0.707107 3.42492
2.26995e-16 0.707107 3.70711
1.5016 0.382683 3.62519
2.40268e-16 0.382683 3.92388
2.7746 0.382683 2.7746
1.5016 0.382683 3.62519
2.82843 0 2.82843
1.53073 0 3.69552
1.5016 0.382683 3.62519
2.40268e-16 0.382683 3.92388
1.53073 0 3.69552
0 0 4
0 0 2
-0.765367 1.22465e-16 1.84776
1.27126e-16 0.382683 2.07612
-0.794497 0.382683 1.91809
-0.765367 1.22465e-16 1.84776
-1.41421 1.22465e-16 1.41421
-0.794497 0.382683 1.91809
-1.46804 0.382683 1.46804
1.27126e-16 0.382683 2.07612
-0.794497 0.382683 1.91809
1.40399e-16 0.707107 2.29289
-0.877452 0.707107 2.11836
-0.794497 0.382683 1.91809
-1.46804 0.382683 1.46804
-0.877452 0.707107 2.11836
-1.62132 0.707107 1.62132
-1.41421 1.22465e-16 1.41421
-1.84776 1.22465e-16 0.765367
-1.46804 0.382683 1.46804
-1.91809 0.382683 0.794497
-1.84776 1.22465e-16 0.765367
-2 0 0
-1.91809 0.382683 0.794497
-2.07612 0.382683 2.54251e-16
-1.46804 0.382683 1.46804
-1.91809 0.382683 0.794497
-1.62132 0.707107 1.62132
-2.11836 0.707107 0.877452
-1.91809 0.382683 0.794497
-2.07612 0.382683 2.54251e-16
-2.11836 0.707107 0.877452
-2.29289 0.707107 2.80798e-16
1.40399e-16 0.707107 2.29289
-0.877452 0.707107 2.11836
1.60264e-16 0.92388 2.61732
-1.0016 0.92388 2.41809
-0.877452 0.707107 2.11836
-1.62132 0.707107 1.62132
-1.0016 0.92388 2.41809
-1.85072 0.92388 1.85072
1.60264e-16 0.92388 2.61732
-1.0016 0.92388 2.41809
0 1 3
-1.14805 1 2.77164
-1.0016 0.92388 2.41809
-1.85072 0.92388 1.85072
-1.14805 1 2.77164
-2.12132 1 2.12132
-1.62132 0.707107 1.62132
-2.11836 0.707107 0.877452
-1.85072 0.92388 1.85072
-2.41809 0.92388 1.0016
-2.11836 0.707107 0.877452
-2.29289 0.707107 2.80798e-16
-2.41809 0.92388 1.0016
-2.61732 0.92388 3.20529e-16
-1.85072 0.92388 1.85072
-2.41809 0.92388 1.0016
-2.12132 1 2.12132
-2.77164 1 1.14805
-2.41809 0.92388 1.0016
-2.61732 0.92388 3.20529e-16
-2.77164 1 1.14805
-3 1 0
0 -1 3
-1.14805 -1 2.77164
1.60264e-16 -0.92388 2.61732
-1.0016 -0.92388 2.41809
-1.14805 -1 2.77164
-2.12132 -1 2.12132
-1.0016 -0.92388 2.41809
-1.85072 -0.92388 1.85072
1.60264e-16 -0.92388 2.61732
-1.0016 -0.92388 2.41809
1.40399e-16 -0.707107 2.29289
-0.877452 -0.707107 2.11836
-1.0016 -0.92388 2.41809
-1.85072 -0.92388 1.85072
-0.877452 -0.707107 2.11836
-1.62132 -0.707107 1.62132
-2.12132 -1 2.12132
-2.77164 -1 1.14805
-1.85072 -0.92388 1.85072
-2.41809 -0.92388 1.0016
-2.77164 -1 1.14805
-3 -1 0
-2.41809 -0.92388 1.0016
-2.61732 -0.92388 3.20529e-16
-1.85072 -0.92388 1.85072
-2.41809 -0.92388 1.0016
-1.62132 -0.707107 1.62132
-2.11836 -0.707107 0.877452
-2.41809 -0.92388 1.0016
-2.61732 -0.92388 3.20529e-16
-2.11836 -0.707107 0.877452
-2.29289 -0.707107 2.80798e-16
1.40399e-16 -0.707107 2.29289
-0.877452 -0.707107 2.11836
1.27126e-16 -0.382683 2.07612
-0.794497 -0.382683 1.91809
-0.877452 -0.707107 2.11836
-1.62132 -0.707107 1.62132
-0.794497 -0.382683 1.91809
-1.46804 -0.382683 1.46804
1.27126e-16 -0.382683 2.07612
-0.794497 -0.382683 1.91809
0 0 2
-0.765367 1.22465e-16 1.84776
-0.794497 -0.382683 1.91809
-1.46804 -0.382683 1.46804
-0.765367 1.22465e-16 1.84776
-1.41421 1.22465e-16 1.41421
-1.62132 -0.707107 1.62132
-2.11836 -0.707107 0.877452
-1.46804 -0.382683 1.46804
-1.91809 -0.382683 0.794497
-2.11836 -0.707107 0.877452
-2.29289 -0.707107 2.80798e-16
-1.91809 -0.382683 0.794497
-2.07612 -0.382683 2.54251e-16
-1.46804 -0.382683 1.46804
-1.91809 -0.382683 0.794497
-1.41421 1.22465e-16 1.41421
-1.84776 1.22465e-16 0.765367
-1.91809 -0.382683 0.794497
-2.07612 -0.382683 2.54251e-16
-1.84776 1.22465e-16 0.765367
-2 0 0
0 0 4
-1.53073 0 3.69552
2.40268e-16 -0.382683 3.92388
-1.5016 -0.382683 3.62519
-1.53073 0 3.69552
-2.82843 0 2.82843
-1.5016 -0.382683 3.62519
-2.7746 -0.382683 2.7746
2.40268e-16 -0.382683 3.92388
-1.5016 -0.382683 3.62519
2.26995e-16 -0.707107 3.70711
-1.41865 -0.707107 3.42492
-1.5016 -0.382683 3.62519
-2.7746 -0.382683 2.7746
-1.41865 -0.707107 3.42492
-2.62132 -0.707107 2.62132
-2.82843 0 2.82843
-3.69552 0 1.53073
-2.7746 -0.382683 2.7746
-3.62519 -0.382683 1.5016
-3.69552 0 1.53073
-4 0 0
-3.62519 -0.382683 1.5016
-3.92388 -0.382683 4.80537e-16
-2.7746 -0.382683 2.7746
-3.62519 -0.382683 1.5016
-2.62132 -0.707107 2.62132
-3.42492 -0.707107 1.41865
[...]
POINT_DATA 1024
SCALARS U double 1
LOOKUP_TABLE default
0.114504 0.114206 0.142897 0.142684 0.114206 0.111831 0.142684 0.140305 0.142897 0.142684 0.166145 0.166083 0.142684 0.140305 0.166083 0.164342 0.111831 0.0922323 0.140305 0.118263 0.0922323 0.0338357 0.118263 0.0487177 0.140305 0.118263 0.164342 0.142568 0.118263 0.0487177 0.142568 0.062595 0.166145 0.166083 0.181026 0.181094 0.166083 0.164342 0.181094 0.180274 0.181026 0.181094 0.184872 0.184989 0.181094 0.180274 0.184989 0.184992 0.164342 0.142568 0.180274 0.160674 0.142568 0.062595 0.160674 0.0714863 0.180274 0.160674 0.184992 0.16841 0.160674 0.0714863 0.16841 0.0727282 0.0190763 0.0191338 0.0232805 0.0233221 0.0191338 0.0189223 0.0233221 0.022529 0.0232805 0.0233221 0.0437582 0.0436919 0.0233221 0.022529 0.0436919 0.0422942 0.0189223 0.0145887 0.022529 0.0171938 0.0145887 0.00473221 0.0171938 0.00645935 0.022529 0.0171938 0.0422942 0.033548 0.0171938 0.00645935 0.033548 0.0114904 0.0437582 0.0436919 0.0795775 0.0793436 0.0436919 0.0422942 0.0793436 0.0774184 0.0795775 0.0793436 0.114504 0.114206 0.0793436 0.0774184 0.114206 0.111831 0.0422942 0.033548 0.0774184 0.0629873 0.033548 0.0114904 0.0629873 0.0208628 0.0774184 0.0629873 0.111831 0.0922323 0.0629873 0.0208628 0.0922323 0.0338357 0.114804 0.11474 0.0839831 0.0839227 0.11474 0.115677 0.0839227 0.084737 0.0839831 0.0839227 0.0496571 0.0496251 0.0839227 0.084737 0.0496251 0.0502641 0.115677 0.108569 0.084737 0.0786523 0.108569 0.0200098 0.0786523 0.0110021 0.084737 0.0786523 0.0502641 0.044684 0.0786523 0.0110021 0.044684 0.00692682 0.0496571 0.0496251 0.0268332 0.0268547 0.0496251 0.0502641 0.0268547 0.0271353 0.0268332 0.0268547 0.0190763 0.0191338 0.0268547 0.0271353 0.0191338 0.0189223 0.0502641 0.044684 0.0271353 0.0223341 0.044684 0.00692682 0.0223341 0.00511556 0.0271353 0.0223341 0.0189223 0.0145887 0.0223341 0.00511556 0.0145887 0.00473221 0.184872 0.184989 0.177734 0.177822 0.184989 0.184992 0.177822 0.178404 0.177734 0.177822 0.16137 0.161391 0.177822 0.178404 0.161391 0.162298 0.184992 0.16841 0.178404 0.164817 0.16841 0.0727282 0.164817 0.0656573 0.178404 0.164817 0.162298 0.151289 0.164817 0.0656573 0.151289 0.0516439 0.16137 0.161391 0.139547 0.139509 0.161391 0.162298 0.139509 0.140515 0.139547 0.139509 0.114804 0.11474 0.139509 0.140515 0.11474 0.115677 0.162298 0.151289 0.140515 0.131663 0.151289 0.0516439 0.131663 0.0346594 0.140515 0.131663 0.115677 0.108569 0.131663 0.0346594 0.108569 0.0200098 0.0338357 0.00718393 0.0487177 0.0109563 0.00718393 0.000608047 0.0109563 0.000534699 0.0487177 0.0109563 0.062595 0.0134734 0.0109563 0.000534699 0.0134734 4.69563e-05 0.000608047 -0.000165931 0.000534699 -0.000225742 -0.000165931 1.81479e-05 -0.000225742 4.85769e-05 0.000534699 -0.000225742 4.69563e-05 -0.000221712 -0.000225742 4.85769e-05 -0.000221712 8.18077e-05 0.062595 0.0134734 0.0714863 0.0134953 0.0134734 4.69563e-05 0.0134953 -0.000605001 0.0714863 0.0134953 0.0727282 0.011286 0.0134953 -0.000605001 0.011286 -0.00103602 4.69563e-05 -0.000221712 -0.000605001 -0.000122151 -0.000221712 8.18077e-05 -0.000122151 7.89755e-05 -0.000605001 -0.000122151 -0.00103602 1.42475e-05 -0.000122151 7.89755e-05 1.42475e-05 3.85746e-05 0.00473221 0.000236904 0.00645935 0.000925311 0.000236904 -4.3428e-05 0.000925311 -2.55458e-05 0.00645935 0.000925311 0.0114904 0.00205099 0.000925311 -2.55458e-05 0.00205099 0.000107803 -4.3428e-05 4.78198e-06 -2.55458e-05 -1.14237e-05 4.78198e-06 -2.19522e-06 -1.14237e-05 2.23245e-06 -2.55458e-05 -1.14237e-05 0.000107803 -4.62746e-05 -1.14237e-05 2.23245e-06 -4.62746e-05 6.50588e-06 0.0114904 0.00205099 0.0208628 0.00398248 0.00205099 0.000107803 0.00398248 0.000377158 0.0208628 0.00398248 0.0338357 0.00718393 0.00398248 0.000377158 0.00718393 0.000608047 0.000107803 -4.62746e-05 0.000377158 -0.000100552 -4.62746e-05 6.50588e-06 -0.000100552 9.14915e-06 0.000377158 -0.000100552 0.000608047 -0.000165931 -0.000100552 9.14915e-06 -0.000165931 1.81479e-05 0.0200098 0.000889131 0.0110021 7.24765e-05 0.000889131 -0.000232648 7.24765e-05 -7.19999e-05 0.0110021 7.24765e-05 0.00692682 -0.000260121 7.24765e-05 -7.19999e-05 -0.000260121 -9.50924e-06 -0.000232648 4.77698e-05 -7.19999e-05 2.0541e-05 4.77698e-05 -1.45316e-05 2.0541e-05 -7.29678e-06 -7.19999e-05 2.0541e-05 -9.50924e-06 1.06171e-05 2.0541e-05 -7.29678e-06 1.06171e-05 -5.46215e-06 0.00692682 -0.000260121 0.00511556 -0.000163458 -0.000260121 -9.50924e-06 -0.000163458 -1.89862e-05 0.00511556 -0.000163458 0.00473221 0.000236904 -0.000163458 -1.89862e-05 0.000236904 -4.3428e-05 -9.50924e-06 1.06171e-05 -1.89862e-05 9.6995e-06 1.06171e-05 -5.46215e-06 9.6995e-06 -5.08743e-06 -1.89862e-05 9.6995e-06 -4.3428e-05 4.78198e-06 9.6995e-06 -5.08743e-06 4.78198e-06 -2.19522e-06 0.0727282 0.011286 0.0656573 0.00801439 0.011286 -0.00103602 0.00801439 -0.00108134 0.0656573 0.00801439 0.0516439 0.00482675 0.00801439 -0.00108134 0.00482675 -0.000837292 -0.00103602 1.42475e-05 -0.00108134 0.000105466 1.42475e-05 3.85746e-05 0.000105466 -5.37953e-06 -0.00108134 0.000105466 -0.000837292 0.000122078 0.000105466 -5.37953e-06 0.000122078 -2.65014e-05 0.0516439 0.00482675 0.0346594 0.00240118 0.00482675 -0.000837292 0.00240118 -0.000503298 0.0346594 0.00240118 0.0200098 0.000889131 0.00240118 -0.000503298 0.000889131 -0.000232648 -0.000837292 0.000122078 -0.000503298 8.93126e-05 0.000122078 -2.65014e-05 8.93126e-05 -2.47353e-05 -0.000503298 8.93126e-05 -0.000232648 4.77698e-05 8.93126e-05 -2.47353e-05 4.77698e-05 -1.45316e-05 1.81479e-05 -0.000165938 4.85769e-05 -0.000225745 -0.000165938 0.000608043 -0.000225745 0.000534686 4.85769e-05 -0.000225745 8.18077e-05 -0.00022172 -0.000225745 0.000534686 -0.00022172 4.69442e-05 0.000608043 0.00718393 0.000534686 0.0109563 0.00718393 0.0338357 0.0109563 0.0487177 0.000534686 0.0109563 4.69442e-05 0.0134734 0.0109563 0.0487177 0.0134734 0.062595 8.18077e-05 -0.00022172 7.89755e-05 -0.000122153 -0.00022172 4.69442e-05 -0.000122153 -0.000605001 7.89755e-05 -0.000122153 3.85746e-05 1.42512e-05 -0.000122153 -0.000605001 1.42512e-05 -0.00103601 4.69442e-05 0.0134734 -0.000605001 0.0134953 0.0134734 0.062595 0.0134953 0.0714863 -0.000605001 0.0134953 -0.00103601 0.011286 0.0134953 0.0714863 0.011286 0.0727282 -2.19522e-06 4.78538e-06 2.23245e-06 -1.14179e-05 4.78538e-06 -4.3426e-05 -1.14179e-05 -2.55483e-05 2.23245e-06 -1.14179e-05 6.50588e-06 -4.62765e-05 -1.14179e-05 -2.55483e-05 -4.62765e-05 0.000107808 -4.3426e-05 0.000236906 -2.55483e-05 0.000925322 0.000236906 0.00473221 0.000925322 0.00645935 -2.55483e-05 0.000925322 0.000107808 0.00205099 0.000925322 0.00645935 0.00205099 0.0114904 6.50588e-06 -4.62765e-05 9.14915e-06 -0.000100549 -4.62765e-05 0.000107808 -0.000100549 0.000377151 9.14915e-06 -0.000100549 1.81479e-05 -0.000165938 -0.000100549 0.000377151 -0.000165938 0.000608043 0.000107808 0.00205099 0.000377151 0.00398249 0.00205099 0.0114904 0.00398249 0.0208628 0.000377151 0.00398249 0.000608043 0.00718393 0.00398249 0.0208628 0.00718393 0.0338357 -1.45316e-05 4.77689e-05 -7.29678e-06 2.0544e-05 4.77689e-05 -0.000232643 2.0544e-05 -7.19971e-05 -7.29678e-06 2.0544e-05 -5.46215e-06 1.06153e-05 2.0544e-05 -7.19971e-05 1.06153e-05 -9.50344e-06 -0.000232643 0.000889127 -7.19971e-05 7.24708e-05 0.000889127 0.0200098 7.24708e-05 0.0110021 -7.19971e-05 7.24708e-05 -9.50344e-06 -0.000260126 7.24708e-05 0.0110021 -0.000260126 0.00692682 -5.46215e-06 1.06153e-05 -5.08743e-06 9.69973e-06 1.06153e-05 -9.50344e-06 9.69973e-06 -1.89837e-05 -5.08743e-06 9.69973e-06 -2.19522e-06 4.78538e-06 9.69973e-06 -1.89837e-05 4.78538e-06 -4.3426e-05 -9.50344e-06 -0.000260126 -1.89837e-05 -0.000163459 -0.000260126 0.00692682 -0.000163459 0.00511557 -1.89837e-05 -0.000163459 -4.3426e-05 0.000236906 -0.000163459 0.00511557 0.000236906 0.00473221 3.85746e-05 1.42512e-05 -5.37953e-06 0.000105471 1.42512e-05 -0.00103601 0.000105471 -0.00108134 -5.37953e-06 0.000105471 -2.65014e-05 0.000122081 0.000105471 -0.00108134 0.000122081 -0.000837278 -0.00103601 0.011286 -0.00108134 0.00801438 0.011286 0.0727282 0.00801438 0.0656573 -0.00108134 0.00801438 -0.000837278 0.00482675 0.00801438 0.0656573 0.00482675 0.0516439 -2.65014e-05 0.000122081 -2.47353e-05 8.93167e-05 0.000122081 -0.000837278 8.93167e-05 -0.000503292 -2.47353e-05 8.93167e-05 -1.45316e-05 4.77689e-05 8.93167e-05 -0.000503292 4.77689e-05 -0.000232643 -0.000837278 0.00482675 -0.000503292 0.00240118 0.00482675 0.0516439 0.00240118 0.0346594 -0.000503292 0.00240118 -0.000232643 0.000889127 0.00240118 0.0346594 0.000889127 0.0200098 0.0338357 0.0922323 0.0487177 0.118263 0.0922323 0.111831 0.118263 0.140305 0.0487177 0.118263 0.062595 0.142568 0.118263 0.140305 0.142568 0.164342 0.111831 0.114206 0.140305 0.142684 0.114206 0.114504 0.142684 0.142897 0.140305 0.142684 0.164342 0.166083 0.142684 0.142897 0.166083 0.166145 0.062595 0.142568 0.0714863 0.160674 0.142568 0.164342 0.160674 0.180274 0.0714863 0.160674 0.0727282 0.16841 0.160674 0.180274 0.16841 0.184992 0.164342 0.166083 0.180274 0.181094 0.166083 0.166145 0.181094 0.181026 0.180274 0.181094 0.184992 0.184989 0.181094 0.181026 0.184989 0.184872 0.00473221 0.0145887 0.00645935 0.0171938 0.0145887 0.0189223 0.0171938 0.022529 0.00645935 0.0171938 0.0114904 0.033548 0.0171938 0.022529 0.033548 0.0422942 0.0189223 0.0191338 0.022529 0.0233221 0.0191338 0.0190763 0.0233221 0.0232805 0.022529 0.0233221 0.0422942 0.0436919 0.0233221 0.0232805 0.0436919 0.0437582 0.0114904 0.033548 0.0208628 0.0629873 0.033548 0.0422942 0.0629873 0.0774184 0.0208628 0.0629873 0.0338357 0.0922323 0.0629873 0.0774184 0.0922323 0.111831 0.0422942 0.0436919 0.0774184 0.0793436 0.0436919 0.0437582 0.0793436 0.0795775 0.0774184 0.0793436 0.111831 0.114206 0.0793436 0.0795775 0.114206 0.114504 0.0200098 0.108569 0.0110021 0.0786524 0.108569 0.115677 0.0786524 0.084737 0.0110021 0.0786524 0.00692682 0.044684 0.0786524 0.084737 0.044684 0.050264 0.115677 0.11474 0.084737 0.0839227 0.11474 0.114804 0.0839227 0.0839831 0.084737 0.0839227 0.050264 0.0496251 0.0839227 0.0839831 0.0496251 0.0496571 0.00692682 0.044684 0.00511557 0.0223342 0.044684 0.050264 0.0223342 0.0271353 0.00511557 0.0223342 0.00473221 0.0145887 0.0223342 0.0271353 0.0145887 0.0189223 0.050264 0.0496251 0.0271353 0.0268547 0.0496251 0.0496571 0.0268547 0.0268332 0.0271353 0.0268547 0.0189223 0.0191338 0.0268547 0.0268332 0.0191338 0.0190763 0.0727282 0.16841 0.0656573 0.164817 0.16841 0.184992 0.164817 0.178404 0.0656573 0.164817 0.0516439 0.151289 0.164817 0.178404 0.151289 0.162298 0.184992 0.184989 0.178404 0.177822 0.184989 0.184872 0.177822 0.177734 0.178404 0.177822 0.162298 0.161391 0.177822 0.177734 0.161391 0.16137 0.0516439 0.151289 0.0346594 0.131663 0.151289 0.162298 0.131663 0.140515 0.0346594 0.131663 0.0200098 0.108569 0.131663 0.140515 0.108569 0.115677 0.162298 0.161391 0.140515 0.139509 0.161391 0.16137 0.139509 0.139547 0.140515 0.139509 0.115677 0.11474 0.139509 0.139547 0.11474 0.114804 
