# vtk DataFile Version 3.0
#This file was generated by the deal.II library on 2023/3/8 at 18:39:21
ASCII
DATASET UNSTRUCTURED_GRID

FIELD FieldData 2
CYCLE 1 1 int
28
TIME 1 1 double
0.056
POINTS 1024 double
2 0 0
1.84776 1.22465e-16 0.765367
2.07612 0.382683 0
1.91809 0.382683 0.794497
1.84776 1.22465e-16 0.765367
1.41421 1.22465e-16 1.41421
1.91809 0.382683 0.794497
1.46804 0.382683 1.46804
2.07612 0.382683 0
1.91809 0.382683 0.794497
2.29289 0.707107 0
2.11836 0.707107 0.877452
1.91809 0.382683 0.794497
1.46804 0.382683 1.46804
2.11836 0.707107 0.877452
1.62132 0.707107 1.62132
1.41421 1.22465e-16 1.41421
0.765367 1.22465e-16 1.84776
1.46804 0.382683 1.46804
0.794497 0.382683 1.91809
0.765367 1.22465e-16 1.84776
0 0 2
0.794497 0.382683 1.91809
1.27126e-16 0.382683 2.07612
1.46804 0.382683 1.46804
0.794497 0.382683 1.91809
1.62132 0.707107 1.62132
0.877452 0.707107 2.11836
0.794497 0.382683 1.91809
1.27126e-16 0.382683 2.07612
0.877452 0.707107 2.11836
1.40399e-16 0.707107 2.29289
2.29289 0.707107 0
2.11836 0.707107 0.877452
2.61732 0.92388 0
2.41809 0.92388 1.0016
2.11836 0.707107 0.877452
1.62132 0.707107 1.62132
2.41809 0.92388 1.0016
1.85072 0.92388 1.85072
2.61732 0.92388 0
2.41809 0.92388 1.0016
3 1 0
2.77164 1 1.14805
2.41809 0.92388 1.0016
1.85072 0.92388 1.85072
2.77164 1 1.14805
2.12132 1 2.12132
1.62132 0.707107 1.62132
0.877452 0.707107 2.11836
1.85072 0.92388 1.85072
1.0016 0.92388 2.41809
0.877452 0.707107 2.11836
1.40399e-16 0.707107 2.29289
1.0016 0.92388 2.41809
1.60264e-16 0.92388 2.61732
1.85072 0.92388 1.85072
1.0016 0.92388 2.41809
2.12132 1 2.12132
1.14805 1 2.77164
1.0016 0.92388 2.41809
1.60264e-16 0.92388 2.61732
1.14805 1 2.77164
0 1 3
3 -1 0
2.77164 -1 1.14805
2.61732 -0.92388 0
2.41809 -0.92388 1.0016
2.77164 -1 1.14805
2.12132 -1 2.12132
2.41809 -0.92388 1.0016
1.85072 -0.92388 1.85072
2.61732 -0.92388 0
2.41809 -0.92388 1.0016
2.29289 -0.707107 0
2.11836 -0.707107 0.877452
2.41809 -0.92388 1.0016
1.85072 -0.92388 1.85072
2.11836 -0.707107 0.877452
1.62132 -0.707107 1.62132
2.12132 -1 2.12132
1.14805 -1 2.77164
1.85072 -0.92388 1.85072
1.0016 -0.92388 2.41809
1.14805 -1 2.77164
0 -1 3
1.0016 -0.92388 2.41809
1.60264e-16 -0.92388 2.61732
1.85072 -0.92388 1.85072
1.0016 -0.92388 2.41809
1.62132 -0.707107 1.62132
0.877452 -0.707107 2.11836
1.0016 -0.92388 2.41809
1.60264e-16 -0.92388 2.61732
0.877452 -0.707107 2.11836
1.40399e-16 -0.707107 2.29289
2.29289 -0.707107 0
2.11836 -0.707107 0.877452
2.07612 -0.382683 0
1.91809 -0.382683 0.794497
2.11836 -0.707107 0.877452
1.62132 -0.707107 1.62132
1.91809 -0.382683 0.794497
1.46804 -0.382683 1.46804
2.07612 -0.382683 0
1.91809 -0.382683 0.794497
2 0 0
1.84776 1.22465e-16 0.765367
1.91809 -0.382683 0.794497
1.46804 -0.382683 1.46804
1.84776 1.22465e-16 0.765367
1.41421 1.22465e-16 1.41421
1.62132 -0.707107 1.62132
0.877452 -0.707107 2.11836
1.46804 -0.382683 1.46804
0.794497 -0.382683 1.91809
0.877452 -0.707107 2.11836
1.40399e-16 -0.707107 2.29289
0.794497 -0.382683 1.91809
1.27126e-16 -0.382683 2.07612
1.46804 -0.382683 1.46804
0.794497 -0.382683 1.91809
1.41421 1.22465e-16 1.41421
0.765367 1.22465e-16 1.84776
0.794497 -0.382683 1.91809
1.27126e-16 -0.382683 2.07612
0.765367 1.22465e-16 1.84776
0 0 2
4 0 0
3.69552 0 1.53073
3.92388 -0.382683 0
3.62519 -0.382683 1.5016
3.69552 0 1.53073
2.82843 0 2.82843
3.62519 -0.382683 1.5016
2.7746 -0.382683 2.7746
3.92388 -0.382683 0
3.62519 -0.382683 1.5016
3.70711 -0.707107 0
3.42492 -0.707107 1.41865
3.62519 -0.382683 1.5016
2.7746 -0.382683 2.7746
3.42492 -0.707107 1.41865
2.62132 -0.707107 2.62132
2.82843 0 2.82843
1.53073 0 3.69552
2.7746 -0.382683 2.7746
1.5016 -0.382683 3.62519
1.53073 0 3.69552
0 0 4
1.5016 -0.382683 3.62519
2.40268e-16 -0.382683 3.92388
2.7746 -0.382683 2.7746
1.5016 -0.382683 3.62519
2.62132 -0.707107 2.62132
1.41865 -0.707107 3.42492
1.5016 -0.382683 3.62519
2.40268e-16 -0.382683 3.92388
1.41865 -0.707107 3.42492
2.26995e-16 -0.707107 3.70711
3.70711 -0.707107 0
3.42492 -0.707107 1.41865
3.38268 -0.92388 0
3.12519 -0.92388 1.2945
3.42492 -0.707107 1.41865
2.62132 -0.707107 2.62132
3.12519 -0.92388 1.2945
2.39192 -0.92388 2.39192
3.38268 -0.92388 0
3.12519 -0.92388 1.2945
3 -1 0
2.77164 -1 1.14805
3.12519 -0.92388 1.2945
2.39192 -0.92388 2.39192
2.77164 -1 1.14805
2.12132 -1 2.12132
2.62132 -0.707107 2.62132
1.41865 -0.707107 3.42492
2.39192 -0.92388 2.39192
1.2945 -0.92388 3.12519
1.41865 -0.707107 3.42492
2.26995e-16 -0.707107 3.70711
1.2945 -0.92388 3.12519
2.0713e-16 -0.92388 3.38268
2.39192 -0.92388 2.39192
1.2945 -0.92388 3.12519
2.12132 -1 2.12132
1.14805 -1 2.77164
1.2945 -0.92388 3.12519
2.0713e-16 -0.92388 3.38268
1.14805 -1 2.77164
0 -1 3
3 1 0
2.77164 1 1.14805
3.38268 0.92388 0
3.12519 0.92388 1.2945
2.77164 1 1.14805
2.12132 1 2.12132
3.12519 0.92388 1.2945
2.39192 0.92388 2.39192
3.38268 0.92388 0
3.12519 0.92388 1.2945
3.70711 0.707107 0
3.42492 0.707107 1.41865
3.12519 0.92388 1.2945
2.39192 0.92388 2.39192
3.42492 0.707107 1.41865
2.62132 0.707107 2.62132
2.12132 1 2.12132
1.14805 1 2.77164
2.39192 0.92388 2.39192
1.2945 0.92388 3.12519
1.14805 1 2.77164
0 1 3
1.2945 0.92388 3.12519
2.0713e-16 0.92388 3.38268
2.39192 0.92388 2.39192
1.2945 0.92388 3.12519
2.62132 0.707107 2.62132
1.41865 0.707107 3.42492
1.2945 0.92388 3.12519
2.0713e-16 0.92388 3.38268
1.41865 0.707107 3.42492
2.26995e-16 0.707107 3.70711
3.70711 0.707107 0
3.42492 0.707107 1.41865
3.92388 0.382683 0
3.62519 0.382683 1.5016
3.42492 0.707107 1.41865
2.62132 0.707107 2.62132
3.62519 0.382683 1.5016
2.7746 0.382683 2.7746
3.92388 0.382683 0
3.62519 0.382683 1.5016
4 0 0
3.69552 0 1.53073
3.62519 0.382683 1.5016
2.7746 0.382683 2.7746
3.69552 0 1.53073
2.82843 0 2.82843
2.62132 0.707107 2.62132
1.41865 0.707107 3.42492
2.7746 0.382683 2.7746
1.5016 0.382683 3.62519
1.41865 0.707107 3.42492
2.26995e-16 0.707107 3.70711
1.5016 0.382683 3.62519
2.40268e-16 0.382683 3.92388
2.7746 0.382683 2.7746
1.5016 0.382683 3.62519
2.82843 0 2.82843
1.53073 0 3.69552
1.5016 0.382683 3.62519
2.40268e-16 0.382683 3.92388
1.53073 0 3.69552
0 0 4
0 0 2
-0.765367 1.22465e-16 1.84776
1.27126e-16 0.382683 2.07612
-0.794497 0.382683 1.91809
-0.765367 1.22465e-16 1.84776
-1.41421 1.22465e-16 1.41421
-0.794497 0.382683 1.91809
-1.46804 0.382683 1.46804
1.27126e-16 0.382683 2.07612
-0.794497 0.382683 1.91809
1.40399e-16 0.707107 2.29289
-0.877452 0.707107 2.11836
-0.794497 0.382683 1.91809
-1.46804 0.382683 1.46804
-0.877452 0.707107 2.11836
-1.62132 0.707107 1.62132
-1.41421 1.22465e-16 1.41421
-1.84776 1.22465e-16 0.765367
-1.46804 0.382683 1.46804
-1.91809 0.382683 0.794497
-1.84776 1.22465e-16 0.765367
-2 0 0
-1.91809 0.382683 0.794497
-2.07612 0.382683 2.54251e-16
-1.46804 0.382683 1.46804
-1.91809 0.382683 0.794497
-1.62132 0.707107 1.62132
-2.11836 0.707107 0.877452
-1.91809 0.382683 0.794497
-2.07612 0.382683 2.54251e-16
-2.11836 0.707107 0.877452
-2.29289 0.707107 2.80798e-16
1.40399e-16 0.707107 2.29289
-0.877452 0.707107 2.11836
1.60264e-16 0.92388 2.61732
-1.0016 0.92388 2.41809
-0.877452 0.707107 2.11836
-1.62132 0.707107 1.62132
-1.0016 0.92388 2.41809
-1.85072 0.92388 1.85072
1.60264e-16 0.92388 2.61732
-1.0016 0.92388 2.41809
0 1 3
-1.14805 1 2.77164
-1.0016 0.92388 2.41809
-1.85072 0.92388 1.85072
-1.14805 1 2.77164
-2.12132 1 2.12132
-1.62132 0.707107 1.62132
-2.11836 0.707107 0.877452
-1.85072 0.92388 1.85072
-2.41809 0.92388 1.0016
-2.11836 0.707107 0.877452
-2.29289 0.707107 2.80798e-16
-2.41809 0.92388 1.0016
-2.61732 0.92388 3.20529e-16
-1.85072 0.92388 1.85072
-2.41809 0.92388 1.0016
-2.12132 1 2.12132
-2.77164 1 1.14805
-2.41809 0.92388 1.0016
-2.61732 0.92388 3.20529e-16
-2.77164 1 1.14805
-3 1 0
0 -1 3
-1.14805 -1 2.77164
1.60264e-16 -0.92388 2.61732
-1.0016 -0.92388 2.41809
-1.14805 -1 2.77164
-2.12132 -1 2.12132
-1.0016 -0.92388 2.41809
-1.85072 -0.92388 1.85072
1.60264e-16 -0.92388 2.61732
-1.0016 -0.92388 2.41809
1.40399e-16 -0.707107 2.29289
-0.877452 -0.707107 2.11836
-1.0016 -0.92388 2.41809
-1.85072 -0.92388 1.85072
-0.877452 -0.707107 2.11836
-1.62132 -0.707107 1.62132
-2.12132 -1 2.12132
-2.77164 -1 1.14805
-1.85072 -0.92388 1.85072
-2.41809 -0.92388 1.0016
-2.77164 -1 1.14805
-3 -1 0
-2.41809 -0.92388 1.0016
-2.61732 -0.92388 3.20529e-16
-1.85072 -0.92388 1.85072
-2.41809 -0.92388 1.0016
-1.62132 -0.707107 1.62132
-2.11836 -0.707107 0.877452
-2.41809 -0.92388 1.0016
-2.61732 -0.92388 3.20529e-16
-2.11836 -0.707107 0.877452
-2.29289 -0.707107 2.80798e-16
1.40399e-16 -0.707107 2.29289
-0.877452 -0.707107 2.11836
1.27126e-16 -0.382683 2.07612
-0.794497 -0.382683 1.91809
-0.877452 -0.707107 2.11836
-1.62132 -0.707107 1.62132
-0.794497 -0.382683 1.91809
-1.46804 -0.382683 1.46804
1.27126e-16 -0.382683 2.07612
-0.794497 -0.382683 1.91809
0 0 2
-0.765367 1.22465e-16 1.84776
-0.794497 -0.382683 1.91809
-1.46804 -0.382683 1.46804
-0.765367 1.22465e-16 1.84776
-1.41421 1.22465e-16 1.41421
-1.62132 -0.707107 1.62132
-2.11836 -0.707107 0.877452
-1.46804 -0.382683 1.46804
-1.91809 -0.382683 0.794497
-2.11836 -0.707107 0.877452
-2.29289 -0.707107 2.80798e-16
-1.91809 -0.382683 0.794497
-2.07612 -0.382683 2.54251e-16
-1.46804 -0.382683 1.46804
-1.91809 -0.382683 0.794497
-1.41421 1.22465e-16 1.41421
-1.84776 1.22465e-16 0.765367
-1.91809 -0.382683 0.794497
-2.07612 -0.382683 2.54251e-16
-1.84776 1.22465e-16 0.765367
-2 0 0
0 0 4
-1.53073 0 3.69552
2.40268e-16 -0.382683 3.92388
-1.5016 -0.382683 3.62519
-1.53073 0 3.69552
-2.82843 0 2.82843
-1.5016 -0.382683 3.62519
-2.7746 -0.382683 2.7746
2.40268e-16 -0.382683 3.92388
-1.5016 -0.382683 3.62519
2.26995e-16 -0.707107 3.70711
-1.41865 -0.707107 3.42492
-1.5016 -0.382683 3.62519
-2.7746 -0.382683 2.7746
-1.41865 -0.707107 3.42492
-2.62132 -0.707107 2.62132
-2.82843 0 2.82843
-3.69552 0 1.53073
-2.7746 -0.382683 2.7746
-3.62519 -0.382683 1.5016
-3.69552 0 1.53073
-4 0 0
-3.62519 -0.382683 1.5016
-3.92388 -0.382683 4.80537e-16
-2.7746 -0.382683 2.7746
-3.62519 -0.382683 1.5016
-2.62132 -0.707107 2.62132
-3.42492 -0.707107 1.41865
[...]
POINT_DATA 1024
SCALARS U double 1
LOOKUP_TABLE default
0.0393745 0.0391399 0.0391904 0.0389707 0.0391399 0.0397146 0.0389707 0.0394699 0.0391904 0.0389707 0.0390319 0.0388675 0.0389707 0.0394699 0.0388675 0.0391319 0.0397146 0.0385839 0.0394699 0.0386897 0.0385839 0.000708964 0.0386897 0.000422153 0.0394699 0.0386897 0.0391319 0.0393496 0.0386897 0.000422153 0.0393496 -0.000382322 0.0390319 0.0388675 0.039042 0.0389681 0.0388675 0.0391319 0.0389681 0.0389157 0.039042 0.0389681 0.0390029 0.0390333 0.0389681 0.0389157 0.0390333 0.0386625 0.0391319 0.0393496 0.0389157 0.0403288 0.0393496 -0.000382322 0.0403288 -0.00132452 0.0389157 0.0403288 0.0386625 0.0411581 0.0403288 -0.00132452 0.0411581 -0.00215913 -0.00022816 -0.000227424 -0.000201104 -0.000200881 -0.000227424 -0.000227919 -0.000200881 -0.000200372 -0.000201104 -0.000200881 0.00776517 0.00772458 -0.000200881 -0.000200372 0.00772458 0.00780881 -0.000227919 -0.00023376 -0.000200372 -0.000207599 -0.00023376 5.92478e-06 -0.000207599 6.63149e-06 -0.000200372 -0.000207599 0.00780881 0.00772241 -0.000207599 6.63149e-06 0.00772241 2.78122e-05 0.00776517 0.00772458 0.0303608 0.0301938 0.00772458 0.00780881 0.0301938 0.030571 0.0303608 0.0301938 0.0393745 0.0391399 0.0301938 0.030571 0.0391399 0.0397146 0.00780881 0.00772241 0.030571 0.0299976 0.00772241 2.78122e-05 0.0299976 0.000303374 0.030571 0.0299976 0.0397146 0.0385839 0.0299976 0.000303374 0.0385839 0.000708964 0.0392248 0.0394727 0.0309026 0.0310937 0.0394727 0.0385119 0.0310937 0.0303477 0.0309026 0.0310937 0.00860902 0.00864822 0.0310937 0.0303477 0.00864822 0.00847628 0.0385119 0.0428292 0.0303477 0.0337168 0.0428292 -0.00353304 0.0337168 -0.00275943 0.0303477 0.0337168 0.00847628 0.00931007 0.0337168 -0.00275943 0.00931007 -0.000690808 0.00860902 0.00864822 -0.000244053 -0.000248065 0.00864822 0.00847628 -0.000248065 -0.000235508 -0.000244053 -0.000248065 -0.00022816 -0.000227424 -0.000248065 -0.000235508 -0.000227424 -0.000227919 0.00847628 0.00931007 -0.000235508 -0.000282287 0.00931007 -0.000690808 -0.000282287 3.69297e-05 -0.000235508 -0.000282287 -0.000227919 -0.00023376 -0.000282287 3.69297e-05 -0.00023376 5.92478e-06 0.0390029 0.0390333 0.0389781 0.0391015 0.0390333 0.0386625 0.0391015 0.0384702 0.0389781 0.0391015 0.0389143 0.0391055 0.0391015 0.0384702 0.0391055 0.0382938 0.0386625 0.0411581 0.0384702 0.0417908 0.0411581 -0.00215913 0.0417908 -0.00278504 0.0384702 0.0417908 0.0382938 0.0421597 0.0417908 -0.00278504 0.0421597 -0.00319398 0.0389143 0.0391055 0.0390393 0.0392711 0.0391055 0.0382938 0.0392711 0.0383532 0.0390393 0.0392711 0.0392248 0.0394727 0.0392711 0.0383532 0.0394727 0.0385119 0.0382938 0.0421597 0.0383532 0.0425378 0.0421597 -0.00319398 0.0425378 -0.00343273 0.0383532 0.0425378 0.0385119 0.0428292 0.0425378 -0.00343273 0.0428292 -0.00353304 0.000708964 -0.000419012 0.000422153 -0.000355226 -0.000419012 0.000143489 -0.000355226 0.000131746 0.000422153 -0.000355226 -0.000382322 -0.000161672 -0.000355226 0.000131746 -0.000161672 9.13536e-05 0.000143489 -4.30852e-05 0.000131746 -4.16334e-05 -4.30852e-05 2.08164e-05 -4.16334e-05 2.08244e-05 0.000131746 -4.16334e-05 9.13536e-05 -3.46806e-05 -4.16334e-05 2.08244e-05 -3.46806e-05 1.92475e-05 -0.000382322 -0.000161672 -0.00132452 9.10245e-05 -0.000161672 9.13536e-05 9.10245e-05 3.02684e-05 -0.00132452 9.10245e-05 -0.00215913 0.000337892 9.10245e-05 3.02684e-05 0.000337892 -3.65971e-05 9.13536e-05 -3.46806e-05 3.02684e-05 -2.09001e-05 -3.46806e-05 1.92475e-05 -2.09001e-05 1.40599e-05 3.02684e-05 -2.09001e-05 -3.65971e-05 -3.15968e-06 -2.09001e-05 1.40599e-05 -3.15968e-06 6.04629e-06 5.92478e-06 7.2787e-08 6.63149e-06 -6.17389e-07 7.2787e-08 -3.61971e-07 -6.17389e-07 -6.61205e-08 6.63149e-06 -6.17389e-07 2.78122e-05 -5.79968e-05 -6.17389e-07 -6.61205e-08 -5.79968e-05 2.38049e-05 -3.61971e-07 1.77217e-07 -6.61205e-08 7.08466e-08 1.77217e-07 -1.10299e-07 7.08466e-08 -5.26328e-08 -6.61205e-08 7.08466e-08 2.38049e-05 -7.95284e-06 7.08466e-08 -5.26328e-08 -7.95284e-06 4.11912e-06 2.78122e-05 -5.79968e-05 0.000303374 -0.000267828 -5.79968e-05 2.38049e-05 -0.000267828 0.000100036 0.000303374 -0.000267828 0.000708964 -0.000419012 -0.000267828 0.000100036 -0.000419012 0.000143489 2.38049e-05 -7.95284e-06 0.000100036 -3.17262e-05 -7.95284e-06 4.11912e-06 -3.17262e-05 1.59066e-05 0.000100036 -3.17262e-05 0.000143489 -4.30852e-05 -3.17262e-05 1.59066e-05 -4.30852e-05 2.08164e-05 -0.00353304 0.000782801 -0.00275943 0.000608547 0.000782801 -0.00016979 0.000608547 -0.000131201 -0.00275943 0.000608547 -0.000690808 0.0001429 0.000608547 -0.000131201 0.0001429 -2.81531e-05 -0.00016979 3.69494e-05 -0.000131201 2.82963e-05 3.69494e-05 -1.42965e-05 2.82963e-05 -1.08361e-05 -0.000131201 2.82963e-05 -2.81531e-05 5.20184e-06 2.82963e-05 -1.08361e-05 5.20184e-06 -1.59263e-06 -0.000690808 0.0001429 3.69297e-05 -9.80351e-06 0.0001429 -2.81531e-05 -9.80351e-06 2.56012e-06 3.69297e-05 -9.80351e-06 5.92478e-06 7.2787e-08 -9.80351e-06 2.56012e-06 7.2787e-08 -3.61971e-07 -2.81531e-05 5.20184e-06 2.56012e-06 -6.90608e-07 5.20184e-06 -1.59263e-06 -6.90608e-07 3.24751e-07 2.56012e-06 -6.90608e-07 -3.61971e-07 1.77217e-07 -6.90608e-07 3.24751e-07 1.77217e-07 -1.10299e-07 -0.00215913 0.000337892 -0.00278504 0.000535866 0.000337892 -3.65971e-05 0.000535866 -9.42464e-05 -0.00278504 0.000535866 -0.00319398 0.000671264 0.000535866 -9.42464e-05 0.000671264 -0.00013553 -3.65971e-05 -3.15968e-06 -9.42464e-05 1.35997e-05 -3.15968e-06 6.04629e-06 1.35997e-05 -2.19917e-06 -9.42464e-05 1.35997e-05 -0.00013553 2.62592e-05 1.35997e-05 -2.19917e-06 2.62592e-05 -8.70524e-06 -0.00319398 0.000671264 -0.00343273 0.000750542 0.000671264 -0.00013553 0.000750542 -0.000159984 -0.00343273 0.000750542 -0.00353304 0.000782801 0.000750542 -0.000159984 0.000782801 -0.00016979 -0.00013553 2.62592e-05 -0.000159984 3.3904e-05 2.62592e-05 -8.70524e-06 3.3904e-05 -1.27078e-05 -0.000159984 3.3904e-05 -0.00016979 3.69494e-05 3.3904e-05 -1.27078e-05 3.69494e-05 -1.42965e-05 2.08164e-05 -4.30873e-05 2.08244e-05 -4.16305e-05 -4.30873e-05 0.00014349 -4.16305e-05 0.000131744 2.08244e-05 -4.16305e-05 1.92475e-05 -3.46822e-05 -4.16305e-05 0.000131744 -3.46822e-05 9.13494e-05 0.00014349 -0.000419011 0.000131744 -0.000355224 -0.000419011 0.000708969 -0.000355224 0.000422152 0.000131744 -0.000355224 9.13494e-05 -0.000161674 -0.000355224 0.000422152 -0.000161674 -0.000382321 1.92475e-05 -3.46822e-05 1.40599e-05 -2.09013e-05 -3.46822e-05 9.13494e-05 -2.09013e-05 3.02711e-05 1.40599e-05 -2.09013e-05 6.04629e-06 -3.15888e-06 -2.09013e-05 3.02711e-05 -3.15888e-06 -3.65967e-05 9.13494e-05 -0.000161674 3.02711e-05 9.10254e-05 -0.000161674 -0.000382321 9.10254e-05 -0.00132452 3.02711e-05 9.10254e-05 -3.65967e-05 0.000337892 9.10254e-05 -0.00132452 0.000337892 -0.00215913 -1.10299e-07 1.78176e-07 -5.26328e-08 7.30354e-08 1.78176e-07 -3.6106e-07 7.30354e-08 -6.74353e-08 -5.26328e-08 7.30354e-08 4.11912e-06 -7.95493e-06 7.30354e-08 -6.74353e-08 -7.95493e-06 2.38083e-05 -3.6106e-07 7.23091e-08 -6.74353e-08 -6.12508e-07 7.23091e-08 5.9264e-06 -6.12508e-07 6.6347e-06 -6.74353e-08 -6.12508e-07 2.38083e-05 -5.79991e-05 -6.12508e-07 6.6347e-06 -5.79991e-05 2.7807e-05 4.11912e-06 -7.95493e-06 1.59066e-05 -3.17256e-05 -7.95493e-06 2.38083e-05 -3.17256e-05 0.000100032 1.59066e-05 -3.17256e-05 2.08164e-05 -4.30873e-05 -3.17256e-05 0.000100032 -4.30873e-05 0.00014349 2.38083e-05 -5.79991e-05 0.000100032 -0.000267822 -5.79991e-05 2.7807e-05 -0.000267822 0.000303366 0.000100032 -0.000267822 0.00014349 -0.000419011 -0.000267822 0.000303366 -0.000419011 0.000708969 -1.42965e-05 3.69477e-05 -1.08361e-05 2.82979e-05 3.69477e-05 -0.000169787 2.82979e-05 -0.000131201 -1.08361e-05 2.82979e-05 -1.59263e-06 5.20012e-06 2.82979e-05 -0.000131201 5.20012e-06 -2.81496e-05 -0.000169787 0.000782799 -0.000131201 0.000608545 0.000782799 -0.00353304 0.000608545 -0.00275943 -0.000131201 0.000608545 -2.81496e-05 0.000142899 0.000608545 -0.00275943 0.000142899 -0.000690807 -1.59263e-06 5.20012e-06 3.24751e-07 -6.90238e-07 5.20012e-06 -2.81496e-05 -6.90238e-07 2.55844e-06 3.24751e-07 -6.90238e-07 -1.10299e-07 1.78176e-07 -6.90238e-07 2.55844e-06 1.78176e-07 -3.6106e-07 -2.81496e-05 0.000142899 2.55844e-06 -9.80209e-06 0.000142899 -0.000690807 -9.80209e-06 3.69266e-05 2.55844e-06 -9.80209e-06 -3.6106e-07 7.23091e-08 -9.80209e-06 3.69266e-05 7.23091e-08 5.9264e-06 6.04629e-06 -3.15888e-06 -2.19917e-06 1.35994e-05 -3.15888e-06 -3.65967e-05 1.35994e-05 -9.42468e-05 -2.19917e-06 1.35994e-05 -8.70524e-06 2.62577e-05 1.35994e-05 -9.42468e-05 2.62577e-05 -0.000135525 -3.65967e-05 0.000337892 -9.42468e-05 0.000535863 0.000337892 -0.00215913 0.000535863 -0.00278504 -9.42468e-05 0.000535863 -0.000135525 0.000671265 0.000535863 -0.00278504 0.000671265 -0.00319398 -8.70524e-06 2.62577e-05 -1.27078e-05 3.39043e-05 2.62577e-05 -0.000135525 3.39043e-05 -0.000159982 -1.27078e-05 3.39043e-05 -1.42965e-05 3.69477e-05 3.39043e-05 -0.000159982 3.69477e-05 -0.000169787 -0.000135525 0.000671265 -0.000159982 0.000750541 0.000671265 -0.00319398 0.000750541 -0.00343274 -0.000159982 0.000750541 -0.000169787 0.000782799 0.000750541 -0.00343274 0.000782799 -0.00353304 0.000708969 0.0385838 0.000422152 0.0386897 0.0385838 0.0397146 0.0386897 0.0394699 0.000422152 0.0386897 -0.000382321 0.0393496 0.0386897 0.0394699 0.0393496 0.0391319 0.0397146 0.0391399 0.0394699 0.0389707 0.0391399 0.0393745 0.0389707 0.0391904 0.0394699 0.0389707 0.0391319 0.0388675 0.0389707 0.0391904 0.0388675 0.0390319 -0.000382321 0.0393496 -0.00132452 0.0403288 0.0393496 0.0391319 0.0403288 0.0389157 -0.00132452 0.0403288 -0.00215913 0.0411581 0.0403288 0.0389157 0.0411581 0.0386625 0.0391319 0.0388675 0.0389157 0.0389681 0.0388675 0.0390319 0.0389681 0.039042 0.0389157 0.0389681 0.0386625 0.0390333 0.0389681 0.039042 0.0390333 0.0390029 5.9264e-06 -0.000233755 6.6347e-06 -0.000207607 -0.000233755 -0.000227921 -0.000207607 -0.000200369 6.6347e-06 -0.000207607 2.7807e-05 0.00772241 -0.000207607 -0.000200369 0.00772241 0.00780881 -0.000227921 -0.000227428 -0.000200369 -0.000200886 -0.000227428 -0.00022816 -0.000200886 -0.000201104 -0.000200369 -0.000200886 0.00780881 0.00772458 -0.000200886 -0.000201104 0.00772458 0.00776517 2.7807e-05 0.00772241 0.000303366 0.0299976 0.00772241 0.00780881 0.0299976 0.030571 0.000303366 0.0299976 0.000708969 0.0385838 0.0299976 0.030571 0.0385838 0.0397146 0.00780881 0.00772458 0.030571 0.0301938 0.00772458 0.00776517 0.0301938 0.0303608 0.030571 0.0301938 0.0397146 0.0391399 0.0301938 0.0303608 0.0391399 0.0393745 -0.00353304 0.0428292 -0.00275943 0.0337168 0.0428292 0.0385119 0.0337168 0.0303477 -0.00275943 0.0337168 -0.000690807 0.00931008 0.0337168 0.0303477 0.00931008 0.00847628 0.0385119 0.0394727 0.0303477 0.0310937 0.0394727 0.0392248 0.0310937 0.0309026 0.0303477 0.0310937 0.00847628 0.00864823 0.0310937 0.0309026 0.00864823 0.00860902 -0.000690807 0.00931008 3.69266e-05 -0.000282284 0.00931008 0.00847628 -0.000282284 -0.000235513 3.69266e-05 -0.000282284 5.9264e-06 -0.000233755 -0.000282284 -0.000235513 -0.000233755 -0.000227921 0.00847628 0.00864823 -0.000235513 -0.000248064 0.00864823 0.00860902 -0.000248064 -0.000244053 -0.000235513 -0.000248064 -0.000227921 -0.000227428 -0.000248064 -0.000244053 -0.000227428 -0.00022816 -0.00215913 0.0411581 -0.00278504 0.0417908 0.0411581 0.0386625 0.0417908 0.0384702 -0.00278504 0.0417908 -0.00319398 0.0421597 0.0417908 0.0384702 0.0421597 0.0382938 0.0386625 0.0390333 0.0384702 0.0391015 0.0390333 0.0390029 0.0391015 0.0389781 0.0384702 0.0391015 0.0382938 0.0391055 0.0391015 0.0389781 0.0391055 0.0389143 -0.00319398 0.0421597 -0.00343274 0.0425378 0.0421597 0.0382938 0.0425378 0.0383532 -0.00343274 0.0425378 -0.00353304 0.0428292 0.0425378 0.0383532 0.0428292 0.0385119 0.0382938 0.0391055 0.0383532 0.0392711 0.0391055 0.0389143 0.0392711 0.0390393 0.0383532 0.0392711 0.0385119 0.0394727 0.0392711 0.0390393 0.0394727 0.0392248 
