# vtk DataFile Version 3.0
#This file was generated by the deal.II library on 2023/3/9 at 14:21:09
ASCII
DATASET UNSTRUCTURED_GRID

FIELD FieldData 2
CYCLE 1 1 int
204
TIME 1 1 double
0.408
POINTS 64 double
2 0 0
0 0 2
3 1 0
0 1 3
3 -1 0
0 -1 3
2 0 0
0 0 2
4 0 0
0 0 4
3 -1 0
0 -1 3
3 1 0
0 1 3
4 0 0
0 0 4
0 0 2
-2 0 0
0 1 3
-3 1 0
0 -1 3
-3 -1 0
0 0 2
-2 0 0
0 0 4
-4 0 0
0 -1 3
-3 -1 0
0 1 3
-3 1 0
0 0 4
-4 0 0
-2 0 0
0 0 -2
-3 1 0
0 1 -3
-3 -1 0
0 -1 -3
-2 0 0
0 0 -2
-4 0 0
0 0 -4
-3 -1 0
0 -1 -3
-3 1 0
0 1 -3
-4 0 0
0 0 -4
0 0 -2
2 0 0
0 1 -3
3 1 0
0 -1 -3
3 -1 0
0 0 -2
2 0 0
0 0 -4
4 0 0
0 -1 -3
3 -1 0
0 1 -3
3 1 0
0 0 -4
4 0 0

CELLS 16 80
4	0	1	3	2
4	4	5	7	6
4	8	9	11	10
4	12	13	15	14
4	16	17	19	18
4	20	21	23	22
4	24	25	27	26
4	28	29	31	30
4	32	33	35	34
4	36	37	39	38
4	40	41	43	42
4	44	45	47	46
4	48	49	51	50
4	52	53	55	54
4	56	57	59	58
4	60	61	63	62

CELL_TYPES 16
 9 9 9 9 9 9 9 9 9 9 9 9 9 9 9 9
POINT_DATA 64
SCALARS U double 1
LOOKUP_TABLE default
-47.8745 29.2355 25.2798 28.6278 25.2798 28.6278 -47.8745 29.2355 17.2996 28.0825 25.2798 28.6278 25.2798 28.6278 17.2996 28.0825 29.2355 33.1001 28.6278 -39.7985 28.6278 -39.7985 29.2355 33.1001 28.0825 -31.659 28.6278 -39.7985 28.6278 -39.7985 28.0825 -31.659 33.1001 29.2355 -39.7985 28.6278 -39.7985 28.6278 33.1001 29.2355 -31.659 28.0825 -39.7985 28.6278 -39.7985 28.6278 -31.659 28.0825 29.2355 -47.8745 28.6278 25.2798 28.6278 25.2798 29.2355 -47.8745 28.0825 17.2996 28.6278 25.2798 28.6278 25.2798 28.0825 17.2996 
