# vtk DataFile Version 3.0
#This file was generated by the deal.II library on 2023/3/9 at 14:21:08
ASCII
DATASET UNSTRUCTURED_GRID

FIELD FieldData 2
CYCLE 1 1 int
97
TIME 1 1 double
0.194
POINTS 64 double
2 0 0
0 0 2
3 1 0
0 1 3
3 -1 0
0 -1 3
2 0 0
0 0 2
4 0 0
0 0 4
3 -1 0
0 -1 3
3 1 0
0 1 3
4 0 0
0 0 4
0 0 2
-2 0 0
0 1 3
-3 1 0
0 -1 3
-3 -1 0
0 0 2
-2 0 0
0 0 4
-4 0 0
0 -1 3
-3 -1 0
0 1 3
-3 1 0
0 0 4
-4 0 0
-2 0 0
0 0 -2
-3 1 0
0 1 -3
-3 -1 0
0 -1 -3
-2 0 0
0 0 -2
-4 0 0
0 0 -4
-3 -1 0
0 -1 -3
-3 1 0
0 1 -3
-4 0 0
0 0 -4
0 0 -2
2 0 0
0 1 -3
3 1 0
0 -1 -3
3 -1 0
0 0 -2
2 0 0
0 0 -4
4 0 0
0 -1 -3
3 -1 0
0 1 -3
3 1 0
0 0 -4
4 0 0

CELLS 16 80
4	0	1	3	2
4	4	5	7	6
4	8	9	11	10
4	12	13	15	14
4	16	17	19	18
4	20	21	23	22
4	24	25	27	26
4	28	29	31	30
4	32	33	35	34
4	36	37	39	38
4	40	41	43	42
4	44	45	47	46
4	48	49	51	50
4	52	53	55	54
4	56	57	59	58
4	60	61	63	62

CELL_TYPES 16
 9 9 9 9 9 9 9 9 9 9 9 9 9 9 9 9
POINT_DATA 64
SCALARS U double 1
LOOKUP_TABLE default
-46.6055 28.4635 24.5693 27.8104 24.5693 27.8104 -46.6055 28.4635 16.7373 27.2462 24.5693 27.8104 24.5693 27.8104 16.7373 27.2462 28.4635 32.2351 27.8104 -38.739 27.8104 -38.739 28.4635 32.2351 27.2462 -30.7581 27.8104 -38.739 27.8104 -38.739 27.2462 -30.7581 32.2351 28.4635 -38.739 27.8104 -38.739 27.8104 32.2351 28.4635 -30.7581 27.2462 -38.739 27.8104 -38.739 27.8104 -30.7581 27.2462 28.4635 -46.6055 27.8104 24.5693 27.8104 24.5693 28.4635 -46.6055 27.2462 16.7373 27.8104 24.5693 27.8104 24.5693 27.2462 16.7373 
