# vtk DataFile Version 3.0
#This file was generated by the deal.II library on 2023/3/8 at 18:39:21
ASCII
DATASET UNSTRUCTURED_GRID

FIELD FieldData 2
CYCLE 1 1 int
17
TIME 1 1 double
0.034
POINTS 1024 double
2 0 0
1.84776 1.22465e-16 0.765367
2.07612 0.382683 0
1.91809 0.382683 0.794497
1.84776 1.22465e-16 0.765367
1.41421 1.22465e-16 1.41421
1.91809 0.382683 0.794497
1.46804 0.382683 1.46804
2.07612 0.382683 0
1.91809 0.382683 0.794497
2.29289 0.707107 0
2.11836 0.707107 0.877452
1.91809 0.382683 0.794497
1.46804 0.382683 1.46804
2.11836 0.707107 0.877452
1.62132 0.707107 1.62132
1.41421 1.22465e-16 1.41421
0.765367 1.22465e-16 1.84776
1.46804 0.382683 1.46804
0.794497 0.382683 1.91809
0.765367 1.22465e-16 1.84776
0 0 2
0.794497 0.382683 1.91809
1.27126e-16 0.382683 2.07612
1.46804 0.382683 1.46804
0.794497 0.382683 1.91809
1.62132 0.707107 1.62132
0.877452 0.707107 2.11836
0.794497 0.382683 1.91809
1.27126e-16 0.382683 2.07612
0.877452 0.707107 2.11836
1.40399e-16 0.707107 2.29289
2.29289 0.707107 0
2.11836 0.707107 0.877452
2.61732 0.92388 0
2.41809 0.92388 1.0016
2.11836 0.707107 0.877452
1.62132 0.707107 1.62132
2.41809 0.92388 1.0016
1.85072 0.92388 1.85072
2.61732 0.92388 0
2.41809 0.92388 1.0016
3 1 0
2.77164 1 1.14805
2.41809 0.92388 1.0016
1.85072 0.92388 1.85072
2.77164 1 1.14805
2.12132 1 2.12132
1.62132 0.707107 1.62132
0.877452 0.707107 2.11836
1.85072 0.92388 1.85072
1.0016 0.92388 2.41809
0.877452 0.707107 2.11836
1.40399e-16 0.707107 2.29289
1.0016 0.92388 2.41809
1.60264e-16 0.92388 2.61732
1.85072 0.92388 1.85072
1.0016 0.92388 2.41809
2.12132 1 2.12132
1.14805 1 2.77164
1.0016 0.92388 2.41809
1.60264e-16 0.92388 2.61732
1.14805 1 2.77164
0 1 3
3 -1 0
2.77164 -1 1.14805
2.61732 -0.92388 0
2.41809 -0.92388 1.0016
2.77164 -1 1.14805
2.12132 -1 2.12132
2.41809 -0.92388 1.0016
1.85072 -0.92388 1.85072
2.61732 -0.92388 0
2.41809 -0.92388 1.0016
2.29289 -0.707107 0
2.11836 -0.707107 0.877452
2.41809 -0.92388 1.0016
1.85072 -0.92388 1.85072
2.11836 -0.707107 0.877452
1.62132 -0.707107 1.62132
2.12132 -1 2.12132
1.14805 -1 2.77164
1.85072 -0.92388 1.85072
1.0016 -0.92388 2.41809
1.14805 -1 2.77164
0 -1 3
1.0016 -0.92388 2.41809
1.60264e-16 -0.92388 2.61732
1.85072 -0.92388 1.85072
1.0016 -0.92388 2.41809
1.62132 -0.707107 1.62132
0.877452 -0.707107 2.11836
1.0016 -0.92388 2.41809
1.60264e-16 -0.92388 2.61732
0.877452 -0.707107 2.11836
1.40399e-16 -0.707107 2.29289
2.29289 -0.707107 0
2.11836 -0.707107 0.877452
2.07612 -0.382683 0
1.91809 -0.382683 0.794497
2.11836 -0.707107 0.877452
1.62132 -0.707107 1.62132
1.91809 -0.382683 0.794497
1.46804 -0.382683 1.46804
2.07612 -0.382683 0
1.91809 -0.382683 0.794497
2 0 0
1.84776 1.22465e-16 0.765367
1.91809 -0.382683 0.794497
1.46804 -0.382683 1.46804
1.84776 1.22465e-16 0.765367
1.41421 1.22465e-16 1.41421
1.62132 -0.707107 1.62132
0.877452 -0.707107 2.11836
1.46804 -0.382683 1.46804
0.794497 -0.382683 1.91809
0.877452 -0.707107 2.11836
1.40399e-16 -0.707107 2.29289
0.794497 -0.382683 1.91809
1.27126e-16 -0.382683 2.07612
1.46804 -0.382683 1.46804
0.794497 -0.382683 1.91809
1.41421 1.22465e-16 1.41421
0.765367 1.22465e-16 1.84776
0.794497 -0.382683 1.91809
1.27126e-16 -0.382683 2.07612
0.765367 1.22465e-16 1.84776
0 0 2
4 0 0
3.69552 0 1.53073
3.92388 -0.382683 0
3.62519 -0.382683 1.5016
3.69552 0 1.53073
2.82843 0 2.82843
3.62519 -0.382683 1.5016
2.7746 -0.382683 2.7746
3.92388 -0.382683 0
3.62519 -0.382683 1.5016
3.70711 -0.707107 0
3.42492 -0.707107 1.41865
3.62519 -0.382683 1.5016
2.7746 -0.382683 2.7746
3.42492 -0.707107 1.41865
2.62132 -0.707107 2.62132
2.82843 0 2.82843
1.53073 0 3.69552
2.7746 -0.382683 2.7746
1.5016 -0.382683 3.62519
1.53073 0 3.69552
0 0 4
1.5016 -0.382683 3.62519
2.40268e-16 -0.382683 3.92388
2.7746 -0.382683 2.7746
1.5016 -0.382683 3.62519
2.62132 -0.707107 2.62132
1.41865 -0.707107 3.42492
1.5016 -0.382683 3.62519
2.40268e-16 -0.382683 3.92388
1.41865 -0.707107 3.42492
2.26995e-16 -0.707107 3.70711
3.70711 -0.707107 0
3.42492 -0.707107 1.41865
3.38268 -0.92388 0
3.12519 -0.92388 1.2945
3.42492 -0.707107 1.41865
2.62132 -0.707107 2.62132
3.12519 -0.92388 1.2945
2.39192 -0.92388 2.39192
3.38268 -0.92388 0
3.12519 -0.92388 1.2945
3 -1 0
2.77164 -1 1.14805
3.12519 -0.92388 1.2945
2.39192 -0.92388 2.39192
2.77164 -1 1.14805
2.12132 -1 2.12132
2.62132 -0.707107 2.62132
1.41865 -0.707107 3.42492
2.39192 -0.92388 2.39192
1.2945 -0.92388 3.12519
1.41865 -0.707107 3.42492
2.26995e-16 -0.707107 3.70711
1.2945 -0.92388 3.12519
2.0713e-16 -0.92388 3.38268
2.39192 -0.92388 2.39192
1.2945 -0.92388 3.12519
2.12132 -1 2.12132
1.14805 -1 2.77164
1.2945 -0.92388 3.12519
2.0713e-16 -0.92388 3.38268
1.14805 -1 2.77164
0 -1 3
3 1 0
2.77164 1 1.14805
3.38268 0.92388 0
3.12519 0.92388 1.2945
2.77164 1 1.14805
2.12132 1 2.12132
3.12519 0.92388 1.2945
2.39192 0.92388 2.39192
3.38268 0.92388 0
3.12519 0.92388 1.2945
3.70711 0.707107 0
3.42492 0.707107 1.41865
3.12519 0.92388 1.2945
2.39192 0.92388 2.39192
3.42492 0.707107 1.41865
2.62132 0.707107 2.62132
2.12132 1 2.12132
1.14805 1 2.77164
2.39192 0.92388 2.39192
1.2945 0.92388 3.12519
1.14805 1 2.77164
0 1 3
1.2945 0.92388 3.12519
2.0713e-16 0.92388 3.38268
2.39192 0.92388 2.39192
1.2945 0.92388 3.12519
2.62132 0.707107 2.62132
1.41865 0.707107 3.42492
1.2945 0.92388 3.12519
2.0713e-16 0.92388 3.38268
1.41865 0.707107 3.42492
2.26995e-16 0.707107 3.70711
3.70711 0.707107 0
3.42492 0.707107 1.41865
3.92388 0.382683 0
3.62519 0.382683 1.5016
3.42492 0.707107 1.41865
2.62132 0.707107 2.62132
3.62519 0.382683 1.5016
2.7746 0.382683 2.7746
3.92388 0.382683 0
3.62519 0.382683 1.5016
4 0 0
3.69552 0 1.53073
3.62519 0.382683 1.5016
2.7746 0.382683 2.7746
3.69552 0 1.53073
2.82843 0 2.82843
2.62132 0.707107 2.62132
1.41865 0.707107 3.42492
2.7746 0.382683 2.7746
1.5016 0.382683 3.62519
1.41865 0.707107 3.42492
2.26995e-16 0.707107 3.70711
1.5016 0.382683 3.62519
2.40268e-16 0.382683 3.92388
2.7746 0.382683 2.7746
1.5016 0.382683 3.62519
2.82843 0 2.82843
1.53073 0 3.69552
1.5016 0.382683 3.62519
2.40268e-16 0.382683 3.92388
1.53073 0 3.69552
0 0 4
0 0 2
-0.765367 1.22465e-16 1.84776
1.27126e-16 0.382683 2.07612
-0.794497 0.382683 1.91809
-0.765367 1.22465e-16 1.84776
-1.41421 1.22465e-16 1.41421
-0.794497 0.382683 1.91809
-1.46804 0.382683 1.46804
1.27126e-16 0.382683 2.07612
-0.794497 0.382683 1.91809
1.40399e-16 0.707107 2.29289
-0.877452 0.707107 2.11836
-0.794497 0.382683 1.91809
-1.46804 0.382683 1.46804
-0.877452 0.707107 2.11836
-1.62132 0.707107 1.62132
-1.41421 1.22465e-16 1.41421
-1.84776 1.22465e-16 0.765367
-1.46804 0.382683 1.46804
-1.91809 0.382683 0.794497
-1.84776 1.22465e-16 0.765367
-2 0 0
-1.91809 0.382683 0.794497
-2.07612 0.382683 2.54251e-16
-1.46804 0.382683 1.46804
-1.91809 0.382683 0.794497
-1.62132 0.707107 1.62132
-2.11836 0.707107 0.877452
-1.91809 0.382683 0.794497
-2.07612 0.382683 2.54251e-16
-2.11836 0.707107 0.877452
-2.29289 0.707107 2.80798e-16
1.40399e-16 0.707107 2.29289
-0.877452 0.707107 2.11836
1.60264e-16 0.92388 2.61732
-1.0016 0.92388 2.41809
-0.877452 0.707107 2.11836
-1.62132 0.707107 1.62132
-1.0016 0.92388 2.41809
-1.85072 0.92388 1.85072
1.60264e-16 0.92388 2.61732
-1.0016 0.92388 2.41809
0 1 3
-1.14805 1 2.77164
-1.0016 0.92388 2.41809
-1.85072 0.92388 1.85072
-1.14805 1 2.77164
-2.12132 1 2.12132
-1.62132 0.707107 1.62132
-2.11836 0.707107 0.877452
-1.85072 0.92388 1.85072
-2.41809 0.92388 1.0016
-2.11836 0.707107 0.877452
-2.29289 0.707107 2.80798e-16
-2.41809 0.92388 1.0016
-2.61732 0.92388 3.20529e-16
-1.85072 0.92388 1.85072
-2.41809 0.92388 1.0016
-2.12132 1 2.12132
-2.77164 1 1.14805
-2.41809 0.92388 1.0016
-2.61732 0.92388 3.20529e-16
-2.77164 1 1.14805
-3 1 0
0 -1 3
-1.14805 -1 2.77164
1.60264e-16 -0.92388 2.61732
-1.0016 -0.92388 2.41809
-1.14805 -1 2.77164
-2.12132 -1 2.12132
-1.0016 -0.92388 2.41809
-1.85072 -0.92388 1.85072
1.60264e-16 -0.92388 2.61732
-1.0016 -0.92388 2.41809
1.40399e-16 -0.707107 2.29289
-0.877452 -0.707107 2.11836
-1.0016 -0.92388 2.41809
-1.85072 -0.92388 1.85072
-0.877452 -0.707107 2.11836
-1.62132 -0.707107 1.62132
-2.12132 -1 2.12132
-2.77164 -1 1.14805
-1.85072 -0.92388 1.85072
-2.41809 -0.92388 1.0016
-2.77164 -1 1.14805
-3 -1 0
-2.41809 -0.92388 1.0016
-2.61732 -0.92388 3.20529e-16
-1.85072 -0.92388 1.85072
-2.41809 -0.92388 1.0016
-1.62132 -0.707107 1.62132
-2.11836 -0.707107 0.877452
-2.41809 -0.92388 1.0016
-2.61732 -0.92388 3.20529e-16
-2.11836 -0.707107 0.877452
-2.29289 -0.707107 2.80798e-16
1.40399e-16 -0.707107 2.29289
-0.877452 -0.707107 2.11836
1.27126e-16 -0.382683 2.07612
-0.794497 -0.382683 1.91809
-0.877452 -0.707107 2.11836
-1.62132 -0.707107 1.62132
-0.794497 -0.382683 1.91809
-1.46804 -0.382683 1.46804
1.27126e-16 -0.382683 2.07612
-0.794497 -0.382683 1.91809
0 0 2
-0.765367 1.22465e-16 1.84776
-0.794497 -0.382683 1.91809
-1.46804 -0.382683 1.46804
-0.765367 1.22465e-16 1.84776
-1.41421 1.22465e-16 1.41421
-1.62132 -0.707107 1.62132
-2.11836 -0.707107 0.877452
-1.46804 -0.382683 1.46804
-1.91809 -0.382683 0.794497
-2.11836 -0.707107 0.877452
-2.29289 -0.707107 2.80798e-16
-1.91809 -0.382683 0.794497
-2.07612 -0.382683 2.54251e-16
-1.46804 -0.382683 1.46804
-1.91809 -0.382683 0.794497
-1.41421 1.22465e-16 1.41421
-1.84776 1.22465e-16 0.765367
-1.91809 -0.382683 0.794497
-2.07612 -0.382683 2.54251e-16
-1.84776 1.22465e-16 0.765367
-2 0 0
0 0 4
-1.53073 0 3.69552
2.40268e-16 -0.382683 3.92388
-1.5016 -0.382683 3.62519
-1.53073 0 3.69552
-2.82843 0 2.82843
-1.5016 -0.382683 3.62519
-2.7746 -0.382683 2.7746
2.40268e-16 -0.382683 3.92388
-1.5016 -0.382683 3.62519
2.26995e-16 -0.707107 3.70711
-1.41865 -0.707107 3.42492
-1.5016 -0.382683 3.62519
-2.7746 -0.382683 2.7746
-1.41865 -0.707107 3.42492
-2.62132 -0.707107 2.62132
-2.82843 0 2.82843
-3.69552 0 1.53073
-2.7746 -0.382683 2.7746
-3.62519 -0.382683 1.5016
-3.69552 0 1.53073
-4 0 0
-3.62519 -0.382683 1.5016
-3.92388 -0.382683 4.80537e-16
-2.7746 -0.382683 2.7746
-3.62519 -0.382683 1.5016
-2.62132 -0.707107 2.62132
-3.42492 -0.707107 1.41865
[...]
POINT_DATA 1024
SCALARS U double 1
LOOKUP_TABLE default
0.0344856 0.0345307 0.033933 0.0339999 0.0345307 0.034188 0.0339999 0.0335947 0.033933 0.0339999 0.0339709 0.0340915 0.0339999 0.0335947 0.0340915 0.0335275 0.034188 0.0363435 0.0335947 0.0359459 0.0363435 -0.00185279 0.0359459 -0.00200053 0.0335947 0.0359459 0.0335275 0.0364071 0.0359459 -0.00200053 0.0364071 -0.00240606 0.0339709 0.0340915 0.0339479 0.0341379 0.0340915 0.0335275 0.0341379 0.0333821 0.0339479 0.0341379 0.0339219 0.0341778 0.0341379 0.0333821 0.0341778 0.0332492 0.0335275 0.0364071 0.0333821 0.0368629 0.0364071 -0.00240606 0.0368629 -0.00286101 0.0333821 0.0368629 0.0332492 0.0372464 0.0368629 -0.00286101 0.0372464 -0.00324733 0.000102156 0.000102781 -0.00040879 -0.000408254 0.000102781 0.000100348 -0.000408254 -0.000406644 -0.00040879 -0.000408254 0.00267676 0.00266934 -0.000408254 -0.000406644 0.00266934 0.00267003 0.000100348 0.000111324 -0.000406644 -0.000425859 0.000111324 -8.9877e-06 -0.000425859 1.7412e-05 -0.000406644 -0.000425859 0.00267003 0.00275963 -0.000425859 1.7412e-05 0.00275963 -8.6413e-05 0.00267676 0.00266934 0.030865 0.0309459 0.00266934 0.00267003 0.0309459 0.0305231 0.030865 0.0309459 0.0344856 0.0345307 0.0309459 0.0305231 0.0345307 0.034188 0.00267003 0.00275963 0.0305231 0.0328288 0.00275963 -8.6413e-05 0.0328288 -0.00194553 0.0305231 0.0328288 0.034188 0.0363435 0.0328288 -0.00194553 0.0363435 -0.00185279 0.0343363 0.0347089 0.0310945 0.0314366 0.0347089 0.0334859 0.0314366 0.0303182 0.0310945 0.0314366 0.00306302 0.00308324 0.0314366 0.0303182 0.00308324 0.00300538 0.0334859 0.038339 0.0303182 0.0347423 0.038339 -0.00388356 0.0347423 -0.00353818 0.0303182 0.0347423 0.00300538 0.0033524 0.0347423 -0.00353818 0.0033524 -0.000283541 0.00306302 0.00308324 -0.000501924 -0.000505811 0.00308324 0.00300538 -0.000505811 -0.000491609 -0.000501924 -0.000505811 0.000102156 0.000102781 -0.000505811 -0.000491609 0.000102781 0.000100348 0.00300538 0.0033524 -0.000491609 -0.000552589 0.0033524 -0.000283541 -0.000552589 4.95028e-05 -0.000491609 -0.000552589 0.000100348 0.000111324 -0.000552589 4.95028e-05 0.000111324 -8.9877e-06 0.0339219 0.0341778 0.0339066 0.0342142 0.0341778 0.0332492 0.0342142 0.0331549 0.0339066 0.0342142 0.0338938 0.0342365 0.0342142 0.0331549 0.0342365 0.0330905 0.0332492 0.0372464 0.0331549 0.0375296 0.0372464 -0.00324733 0.0375296 -0.00352727 0.0331549 0.0375296 0.0330905 0.03771 0.0375296 -0.00352727 0.03771 -0.00370777 0.0338938 0.0342365 0.0338299 0.0341917 0.0342365 0.0330905 0.0341917 0.0329996 0.0338299 0.0341917 0.0343363 0.0347089 0.0341917 0.0329996 0.0347089 0.0334859 0.0330905 0.03771 0.0329996 0.0377453 0.03771 -0.00370777 0.0377453 -0.00379996 0.0329996 0.0377453 0.0334859 0.038339 0.0377453 -0.00379996 0.038339 -0.00388356 -0.00185279 0.000303377 -0.00200053 0.000351037 0.000303377 -4.06082e-05 0.000351037 -5.42693e-05 -0.00200053 0.000351037 -0.00240606 0.000473376 0.000351037 -5.42693e-05 0.000473376 -8.82704e-05 -4.06082e-05 2.06106e-06 -5.42693e-05 5.87916e-06 2.06106e-06 1.89857e-06 5.87916e-06 9.4602e-08 -5.42693e-05 5.87916e-06 -8.82704e-05 1.52493e-05 5.87916e-06 9.4602e-08 1.52493e-05 -4.30419e-06 -0.00240606 0.000473376 -0.00286101 0.000618624 0.000473376 -8.82704e-05 0.000618624 -0.00013104 -0.00286101 0.000618624 -0.00324733 0.000747798 0.000618624 -0.00013104 0.000747798 -0.000170896 -8.82704e-05 1.52493e-05 -0.00013104 2.78719e-05 1.52493e-05 -4.30419e-06 2.78719e-05 -1.06e-05 -0.00013104 2.78719e-05 -0.000170896 4.02834e-05 2.78719e-05 -1.06e-05 4.02834e-05 -1.70666e-05 -8.9877e-06 1.98671e-06 1.7412e-05 -1.83473e-06 1.98671e-06 -4.30868e-07 -1.83473e-06 -1.33703e-07 1.7412e-05 -1.83473e-06 -8.6413e-05 3.41446e-06 -1.83473e-06 -1.33703e-07 3.41446e-06 3.33661e-06 -4.30868e-07 9.3933e-08 -1.33703e-07 1.92116e-07 9.3933e-08 -3.67734e-08 1.92116e-07 -1.45599e-07 -1.33703e-07 1.92116e-07 3.33661e-06 -1.95481e-06 1.92116e-07 -1.45599e-07 -1.95481e-06 1.28648e-06 -8.6413e-05 3.41446e-06 -0.00194553 0.000360242 3.41446e-06 3.33661e-06 0.000360242 -6.16795e-05 -0.00194553 0.000360242 -0.00185279 0.000303377 0.000360242 -6.16795e-05 0.000303377 -4.06082e-05 3.33661e-06 -1.95481e-06 -6.16795e-05 9.08456e-06 -1.95481e-06 1.28648e-06 9.08456e-06 -1.82083e-06 -6.16795e-05 9.08456e-06 -4.06082e-05 2.06106e-06 9.08456e-06 -1.82083e-06 2.06106e-06 1.89857e-06 -0.00388356 0.000965568 -0.00353818 0.000882313 0.000965568 -0.000240343 0.000882313 -0.000220357 -0.00353818 0.000882313 -0.000283541 6.3361e-05 0.000882313 -0.000220357 6.3361e-05 -1.38343e-05 -0.000240343 6.28634e-05 -0.000220357 5.78734e-05 6.28634e-05 -2.92592e-05 5.78734e-05 -2.7034e-05 -0.000220357 5.78734e-05 -1.38343e-05 3.01967e-06 5.78734e-05 -2.7034e-05 3.01967e-06 -1.1663e-06 -0.000283541 6.3361e-05 4.95028e-05 -1.14495e-05 6.3361e-05 -1.38343e-05 -1.14495e-05 2.61214e-06 4.95028e-05 -1.14495e-05 -8.9877e-06 1.98671e-06 -1.14495e-05 2.61214e-06 1.98671e-06 -4.30868e-07 -1.38343e-05 3.01967e-06 2.61214e-06 -6.08298e-07 3.01967e-06 -1.1663e-06 -6.08298e-07 2.52657e-07 2.61214e-06 -6.08298e-07 -4.30868e-07 9.3933e-08 -6.08298e-07 2.52657e-07 9.3933e-08 -3.67734e-08 -0.00324733 0.000747798 -0.00352727 0.000844529 0.000747798 -0.000170896 0.000844529 -0.00020173 -0.00352727 0.000844529 -0.00370777 0.000908274 0.000844529 -0.00020173 0.000908274 -0.000222484 -0.000170896 4.02834e-05 -0.00020173 5.02473e-05 4.02834e-05 -1.70666e-05 5.02473e-05 -2.24123e-05 -0.00020173 5.02473e-05 -0.000222484 5.71112e-05 5.02473e-05 -2.24123e-05 5.71112e-05 -2.61584e-05 -0.00370777 0.000908274 -0.00379996 0.000941943 0.000908274 -0.000222484 0.000941943 -0.000233712 -0.00379996 0.000941943 -0.00388356 0.000965568 0.000941943 -0.000233712 0.000965568 -0.000240343 -0.000222484 5.71112e-05 -0.000233712 6.0904e-05 5.71112e-05 -2.61584e-05 6.0904e-05 -2.82592e-05 -0.000233712 6.0904e-05 -0.000240343 6.28634e-05 6.0904e-05 -2.82592e-05 6.28634e-05 -2.92592e-05 1.89857e-06 2.06106e-06 9.4602e-08 5.87991e-06 2.06106e-06 -4.06103e-05 5.87991e-06 -5.42689e-05 9.4602e-08 5.87991e-06 -4.30419e-06 1.52481e-05 5.87991e-06 -5.42689e-05 1.52481e-05 -8.82713e-05 -4.06103e-05 0.00030338 -5.42689e-05 0.000351034 0.00030338 -0.0018528 0.000351034 -0.00200053 -5.42689e-05 0.000351034 -8.82713e-05 0.000473379 0.000351034 -0.00200053 0.000473379 -0.00240605 -4.30419e-06 1.52481e-05 -1.06e-05 2.7871e-05 1.52481e-05 -8.82713e-05 2.7871e-05 -0.000131041 -1.06e-05 2.7871e-05 -1.70666e-05 4.02848e-05 2.7871e-05 -0.000131041 4.02848e-05 -0.000170896 -8.82713e-05 0.000473379 -0.000131041 0.000618622 0.000473379 -0.00240605 0.000618622 -0.00286101 -0.000131041 0.000618622 -0.000170896 0.000747802 0.000618622 -0.00286101 0.000747802 -0.00324733 -3.67734e-08 9.40245e-08 -1.45599e-07 1.9337e-07 9.40245e-08 -4.30118e-07 1.9337e-07 -1.35217e-07 -1.45599e-07 1.9337e-07 1.28648e-06 -1.95547e-06 1.9337e-07 -1.35217e-07 -1.95547e-06 3.33838e-06 -4.30118e-07 1.9861e-06 -1.35217e-07 -1.83267e-06 1.9861e-06 -8.98688e-06 -1.83267e-06 1.74114e-05 -1.35217e-07 -1.83267e-06 3.33838e-06 3.41251e-06 -1.83267e-06 1.74114e-05 3.41251e-06 -8.6415e-05 1.28648e-06 -1.95547e-06 -1.82083e-06 9.08443e-06 -1.95547e-06 3.33838e-06 9.08443e-06 -6.16804e-05 -1.82083e-06 9.08443e-06 1.89857e-06 2.06106e-06 9.08443e-06 -6.16804e-05 2.06106e-06 -4.06103e-05 3.33838e-06 3.41251e-06 -6.16804e-05 0.000360241 3.41251e-06 -8.6415e-05 0.000360241 -0.00194552 -6.16804e-05 0.000360241 -4.06103e-05 0.00030338 0.000360241 -0.00194552 0.00030338 -0.0018528 -2.92592e-05 6.28637e-05 -2.7034e-05 5.7874e-05 6.28637e-05 -0.000240343 5.7874e-05 -0.000220358 -2.7034e-05 5.7874e-05 -1.1663e-06 3.01904e-06 5.7874e-05 -0.000220358 3.01904e-06 -1.38325e-05 -0.000240343 0.000965569 -0.000220358 0.000882311 0.000965569 -0.00388356 0.000882311 -0.00353818 -0.000220358 0.000882311 -1.38325e-05 6.33602e-05 0.000882311 -0.00353818 6.33602e-05 -0.00028354 -1.1663e-06 3.01904e-06 2.52657e-07 -6.08095e-07 3.01904e-06 -1.38325e-05 -6.08095e-07 2.61048e-06 2.52657e-07 -6.08095e-07 -3.67734e-08 9.40245e-08 -6.08095e-07 2.61048e-06 9.40245e-08 -4.30118e-07 -1.38325e-05 6.33602e-05 2.61048e-06 -1.14479e-05 6.33602e-05 -0.00028354 -1.14479e-05 4.95007e-05 2.61048e-06 -1.14479e-05 -4.30118e-07 1.9861e-06 -1.14479e-05 4.95007e-05 1.9861e-06 -8.98688e-06 -1.70666e-05 4.02848e-05 -2.24123e-05 5.02474e-05 4.02848e-05 -0.000170896 5.02474e-05 -0.000201729 -2.24123e-05 5.02474e-05 -2.61584e-05 5.7111e-05 5.02474e-05 -0.000201729 5.7111e-05 -0.000222483 -0.000170896 0.000747802 -0.000201729 0.000844528 0.000747802 -0.00324733 0.000844528 -0.00352727 -0.000201729 0.000844528 -0.000222483 0.000908273 0.000844528 -0.00352727 0.000908273 -0.00370778 -2.61584e-05 5.7111e-05 -2.82592e-05 6.09045e-05 5.7111e-05 -0.000222483 6.09045e-05 -0.000233712 -2.82592e-05 6.09045e-05 -2.92592e-05 6.28637e-05 6.09045e-05 -0.000233712 6.28637e-05 -0.000240343 -0.000222483 0.000908273 -0.000233712 0.000941943 0.000908273 -0.00370778 0.000941943 -0.00379995 -0.000233712 0.000941943 -0.000240343 0.000965569 0.000941943 -0.00379995 0.000965569 -0.00388356 -0.0018528 0.0363435 -0.00200053 0.0359459 0.0363435 0.034188 0.0359459 0.0335947 -0.00200053 0.0359459 -0.00240605 0.0364071 0.0359459 0.0335947 0.0364071 0.0335274 0.034188 0.0345307 0.0335947 0.0339999 0.0345307 0.0344856 0.0339999 0.033933 0.0335947 0.0339999 0.0335274 0.0340915 0.0339999 0.033933 0.0340915 0.0339709 -0.00240605 0.0364071 -0.00286101 0.0368629 0.0364071 0.0335274 0.0368629 0.0333821 -0.00286101 0.0368629 -0.00324733 0.0372464 0.0368629 0.0333821 0.0372464 0.0332492 0.0335274 0.0340915 0.0333821 0.0341379 0.0340915 0.0339709 0.0341379 0.0339479 0.0333821 0.0341379 0.0332492 0.0341778 0.0341379 0.0339479 0.0341778 0.0339219 -8.98688e-06 0.000111324 1.74114e-05 -0.00042586 0.000111324 0.000100347 -0.00042586 -0.000406643 1.74114e-05 -0.00042586 -8.6415e-05 0.00275963 -0.00042586 -0.000406643 0.00275963 0.00267003 0.000100347 0.000102781 -0.000406643 -0.000408253 0.000102781 0.000102156 -0.000408253 -0.00040879 -0.000406643 -0.000408253 0.00267003 0.00266934 -0.000408253 -0.00040879 0.00266934 0.00267676 -8.6415e-05 0.00275963 -0.00194552 0.0328288 0.00275963 0.00267003 0.0328288 0.0305231 -0.00194552 0.0328288 -0.0018528 0.0363435 0.0328288 0.0305231 0.0363435 0.034188 0.00267003 0.00266934 0.0305231 0.0309459 0.00266934 0.00267676 0.0309459 0.030865 0.0305231 0.0309459 0.034188 0.0345307 0.0309459 0.030865 0.0345307 0.0344856 -0.00388356 0.038339 -0.00353818 0.0347423 0.038339 0.0334859 0.0347423 0.0303182 -0.00353818 0.0347423 -0.00028354 0.0033524 0.0347423 0.0303182 0.0033524 0.00300537 0.0334859 0.0347089 0.0303182 0.0314366 0.0347089 0.0343363 0.0314366 0.0310945 0.0303182 0.0314366 0.00300537 0.00308324 0.0314366 0.0310945 0.00308324 0.00306302 -0.00028354 0.0033524 4.95007e-05 -0.000552588 0.0033524 0.00300537 -0.000552588 -0.000491611 4.95007e-05 -0.000552588 -8.98688e-06 0.000111324 -0.000552588 -0.000491611 0.000111324 0.000100347 0.00300537 0.00308324 -0.000491611 -0.000505813 0.00308324 0.00306302 -0.000505813 -0.000501924 -0.000491611 -0.000505813 0.000100347 0.000102781 -0.000505813 -0.000501924 0.000102781 0.000102156 -0.00324733 0.0372464 -0.00352727 0.0375296 0.0372464 0.0332492 0.0375296 0.0331549 -0.00352727 0.0375296 -0.00370778 0.03771 0.0375296 0.0331549 0.03771 0.0330905 0.0332492 0.0341778 0.0331549 0.0342142 0.0341778 0.0339219 0.0342142 0.0339066 0.0331549 0.0342142 0.0330905 0.0342365 0.0342142 0.0339066 0.0342365 0.0338938 -0.00370778 0.03771 -0.00379995 0.0377453 0.03771 0.0330905 0.0377453 0.0329996 -0.00379995 0.0377453 -0.00388356 0.038339 0.0377453 0.0329996 0.038339 0.0334859 0.0330905 0.0342365 0.0329996 0.0341917 0.0342365 0.0338938 0.0341917 0.0338299 0.0329996 0.0341917 0.0334859 0.0347089 0.0341917 0.0338299 0.0347089 0.0343363 
